80
Lattice="11.884388 0.0 0.0 0.0 13.358984 0.0 0.0 0.0 7.822792" Properties=species:S:1:pos:R:3 nonpolar_mpid=mp-558238 polar_mpid=mp-27925 REF_polarisation="-4.021146439998274e-08 -6.43949861055643e-08 -1.0263813351360638e-06" REF_electric_field="0.0 0.0 0.0" config_energy_weight=0.0 config_forces_weight=0.0 config_stress_weight=0.0 config_becs_weight=0.0 config_polarisability_weight=0.0 pbc="T T T"
K        0.78054284       7.58336086       3.95013447
K       11.10384516       5.77562314       0.03873847
K        6.72273684      12.45511514       3.95013447
K        5.16165116       0.90386886       0.03873847
K        1.01016110       1.26684581       0.03874629
K       10.87422690      12.09213819       3.95014229
K        6.95235510       5.41264619       0.03874629
K        4.93203290       7.94633781       3.95014229
Er       0.08058804       3.45437944       3.95013447
Er      11.80379996       9.90460456       0.03873847
Er       6.02278204       3.22511256       3.95013447
Er       5.86160596      10.13387144       0.03873847
Er       2.49543625       0.84054727       3.95013447
Er       9.38895175      12.51843673       0.03873847
Er       8.43763025       5.83894473       3.95013447
Er       3.44675775       7.52003927       0.03873847
Er       2.89728307      11.18710710       5.72109723
Er       8.98710493       2.17187690       1.80970123
Er       8.83947707       8.85136890       5.72109723
Er       3.04491093       4.50761510       1.80970123
Er       2.89728307      11.18710710       2.17917952
Er       8.98710493       2.17187690       6.09057552
Er       8.83947707       8.85136890       2.17917952
Er       3.04491093       4.50761510       6.09057552
F        0.31311797       1.19072632       3.95013447
F       11.57127003      12.16825768       0.03873847
F        6.25531197       5.48876568       3.95013447
F        5.62907603       7.87021832       0.03873847
F        0.88046677      10.26209097       2.02802753
F       11.00392123       3.09689303       5.93942353
F        6.82266077       9.77638503       2.02802753
F        5.06172723       3.58259897       5.93942353
F        0.88046677      10.26209097       5.87225704
F       11.00392123       3.09689303       1.96086104
F        6.82266077       9.77638503       5.87225704
F        5.06172723       3.58259897       1.96086104
F        1.04328288       5.03442663       5.28565716
F       10.84110512       8.32455737       1.37426116
F        6.98547688       1.64506537       5.28565716
F        4.89891112      11.71391863       1.37426116
F        1.04328288       5.03442663       2.61462742
F       10.84110512       8.32455737       6.52602342
F        6.98547688       1.64506537       2.61462742
F        4.89891112      11.71391863       6.52602342
F        1.47150115       8.35540326       0.03874629
F       10.41288685       5.00358074       3.95014229
F        7.41369515      11.68307274       0.03874629
F        4.47069285       1.67591126       3.95014229
F        1.58701740      12.08618008       3.95013447
F       10.29737060       1.27280392       0.03873847
F        7.52921140       7.95229592       3.95013447
F        4.35517660       5.40668808       0.03873847
F        1.93855760       5.61069313       0.03874629
F        9.94583040       7.74829087       3.95014229
F        7.88075160       1.06879887       0.03874629
F        4.00363640      12.29018513       3.95014229
F        2.01674499       2.65384233       2.62819996
F        9.86764301      10.70514167       6.53959596
F        7.95893899       4.02564967       2.62819996
F        3.92544901       9.33333433       6.53959596
F        2.01674499       2.65384233       5.27206897
F        9.86764301      10.70514167       1.36067297
F        7.95893899       4.02564967       5.27206897
F        3.92544901       9.33333433       1.36067297
F        2.28243237      11.20659786       0.03874629
F        9.60195563       2.15238614       3.95014229
F        8.22462637       8.83187814       0.03874629
F        3.65976163       4.52710586       3.95014229
F        2.59821244       0.03158064       6.02109348
F        9.28617556      13.32740336       2.10969748
F        8.54040644       6.64791136       6.02109348
F        3.34398156       6.71107264       2.10969748
F        2.59821244       0.03158064       1.87917545
F        9.28617556      13.32740336       5.79057145
F        8.54040644       6.64791136       1.87917545
F        3.34398156       6.71107264       5.79057145
F        2.87801847       3.14250060       0.03874629
F        9.00636953      10.21648340       3.95014229
F        8.82021247       3.53699140       0.03874629
F        3.06417553       9.82199260       3.95014229
24
Lattice="9.053209 0.0 -1.059754 0.0 6.557074 0.0 -0.006025 0.0 12.507491" Properties=species:S:1:pos:R:3 nonpolar_mpid=mp-568986 polar_mpid=mp-27181 REF_polarisation="-4.337321519497034e-09 -1.2544182464560487e-16 -9.16071574510626e-09" REF_electric_field="0.0 0.0 0.0" config_energy_weight=0.0 config_forces_weight=0.0 config_stress_weight=0.0 config_becs_weight=0.0 config_polarisability_weight=0.0 pbc="T T T"
K        1.81528925       1.31527692       8.29409554
K        1.81830175       5.24179708       2.04035004
K        7.00455984       1.96326008       3.08582668
K        7.00154734       4.59381392       9.33957218
Au       4.40691205       1.63926850      11.94370661
Au       4.40992455       4.91780550       5.68996111
Au       8.93351655       1.63926850      11.41382961
Au       8.93652905       4.91780550       5.16008411
Cl       0.72928302       1.95261140       2.10972229
Cl       0.72627052       4.60446260       8.36346779
Cl       0.99516581       3.00885766       5.50075521
Cl       0.99215331       3.54821634      11.75450071
Cl       2.91537747       0.00015081       4.99643917
Cl       2.91236497       6.55692319      11.25018467
Cl       4.34792249       2.62654090       9.84343106
Cl       4.35093499       3.93053310       3.58968556
Cl       4.47192660       0.65199610       1.53649117
Cl       4.46891410       5.90507790       7.79023667
Cl       5.90748413       3.27868781       0.12973755
Cl       5.90447163       3.27838619       6.38348305
Cl       7.82468328       0.26967934       5.87916701
Cl       7.82769578       6.28739466      -0.37457849
Cl       8.09056607       1.32592560       9.27019994
Cl       8.09357857       5.23114840       3.01645444
12
Lattice="5.14491 -0.00253 -0.162052 -2.49386 5.224014 -1.955471 -0.004596 0.008419 6.245475" Properties=species:S:1:pos:R:3 nonpolar_mpid=mp-615173 polar_mpid=mp-565192 REF_polarisation="-0.015331742478242889 3.20166227539349e-08 -0.018564519714952845" REF_electric_field="0.0 0.0 0.0" config_energy_weight=0.0 config_forces_weight=0.0 config_stress_weight=0.0 config_becs_weight=0.0 config_polarisability_weight=0.0 pbc="T T T"
Cu       2.18129637       4.71295272       3.02353225
Bi      -0.38885549       4.71000822      -0.01817942
W       -0.46396035       2.18512880       3.07576106
W        2.17550822       2.01929263       5.08882627
O        1.18020828       1.11143695       3.42822513
O        0.19784314       3.40843502       1.90012826
O        1.51830073       0.78756741       0.01898407
O        0.53133960       3.09298449       4.73636220
O        3.76369023       1.05335478       4.56063053
O        3.99403334       0.90400188       1.81314518
O        2.86702568       3.28947055      -0.05608501
O        3.09277279       3.14853665       3.44190463
72
Lattice="11.334832 0.0 0.0 0.0 11.334832 0.0 0.0 0.0 9.155114" Properties=species:S:1:pos:R:3 nonpolar_mpid=mp-625541 polar_mpid=mp-625789 REF_polarisation="-1.3030320109817895e-06 -8.990875141404543e-07 3.0262226358463373e-07" REF_electric_field="0.0 0.0 0.0" config_energy_weight=0.0 config_forces_weight=0.0 config_stress_weight=0.0 config_becs_weight=0.0 config_polarisability_weight=0.0 pbc="T T T"
Sn       0.59238099       3.84480902       9.14065807
Sn       6.25979699       9.51221368       9.14065807
Sn       0.59238099       7.49003432       4.56310107
Sn       6.25979699       1.82261832       4.56310107
Sn       1.92679676       0.48819121       9.11260681
Sn       7.59422409       6.15560721       9.11260681
Sn       1.92679676      10.84664079       4.53504981
Sn       7.59422409       5.17922479       4.53504981
Sn       2.93789778       2.83370800       6.57813251
Sn       8.60531378       8.50112400       6.57813251
Sn       2.93789778       8.50112400       2.00057551
Sn       8.60531378       2.83370800       2.00057551
Sn       2.93789778       2.83370800       2.52001837
Sn       8.60531378       8.50112400       2.52001837
Sn       2.93789778       8.50112400       7.09757537
Sn       8.60531378       2.83370800       7.09757537
Sn       3.94898746       5.17922479       9.11260681
Sn       9.61641479      10.84664079       9.11260681
Sn       3.94898746       6.15560721       4.53504981
Sn       9.61641479       0.48819121       4.53504981
Sn       5.28341456       1.82261832       9.14065807
Sn      10.95083056       7.49003432       9.14065807
Sn       5.28341456       9.51221368       4.56310107
Sn      10.95083056       3.84480902       4.56310107
H        0.20375494       1.90834365       2.17829458
H        5.87117094       7.57575965       2.17829458
H        0.20375494       9.42648835       6.75585158
H        5.87117094       3.75907235       6.75585158
H        2.01254476       5.76696983       2.34229930
H        7.67996076       0.09955383       2.34229930
H        2.01254476       5.56786217       6.91985630
H        7.67996076      11.23527817       6.91985630
H        3.86325079       0.09955383       6.91985630
H        9.53066679       5.76696983       6.91985630
H        3.86325079      11.23527817       2.34229930
H        9.53066679       5.56786217       2.34229930
H        5.67205195       3.75907235       2.17829458
H        0.00463595       9.42648835       2.17829458
H        5.67205195       7.57575965       6.75585158
H        0.00463595       1.90834365       6.75585158
O        0.93773065       9.28734195       6.09876159
O        6.60514665       3.61992595       6.09876159
O        0.93773065       2.04749005       1.52120459
O        6.60514665       7.71490605       1.52120459
O        1.40711738       2.23376668       7.98681159
O        7.07453338       7.90118268       7.98681159
O        1.40711738       9.10106532       3.40925459
O        7.07453338       3.43364932       3.40925459
O        2.15167982       4.83388646       7.57694629
O        7.81909582      10.50130246       7.57694629
O        2.15167982       6.50094554       2.99938929
O        7.81909582       0.83352954       2.99938929
O        2.33795645       4.36448840       1.11133929
O        8.00537245      10.03190440       1.11133929
O        2.33795645       6.97034360       5.68889629
O        8.00537245       1.30292760       5.68889629
O        3.53785043       1.30292760       1.11133929
O        9.20526643       6.97034360       1.11133929
O        3.53785043      10.03190440       5.68889629
O        9.20526643       4.36448840       5.68889629
O        3.72411573       0.83352954       7.57694629
O        9.39153173       6.50094554       7.57694629
O        3.72411573      10.50130246       2.99938929
O        9.39153173       4.83388646       2.99938929
O        4.46868951       3.43364932       7.98681159
O       10.13610551       9.10106532       7.98681159
O        4.46868951       7.90118268       3.40925459
O       10.13610551       2.23376668       3.40925459
O        4.93807623       3.61992595       1.52120459
O       10.60549223       9.28734195       1.52120459
O        4.93807623       7.71490605       6.09876159
O       10.60549223       2.04749005       6.09876159
12
Lattice="5.239018 0.0 0.0 0.0 5.141517 0.0 0.0 0.0 5.154011" Properties=species:S:1:pos:R:3 nonpolar_mpid=mp-1565 polar_mpid=mp-556605 REF_polarisation="1.0095056710778486e-06 6.341607007361264e-07 -0.01684732415940238" REF_electric_field="0.0 0.0 0.0" config_energy_weight=0.0 config_forces_weight=0.0 config_stress_weight=0.0 config_becs_weight=0.0 config_polarisability_weight=0.0 pbc="T T T"
Zr       0.07118778       3.81907770       3.96368701
Zr       5.16783022       1.32243930       1.38668151
Zr       2.69069678       1.32243930       3.96368701
Zr       2.54832122       3.81907770       1.38668151
O        1.04283701       4.98852602       0.34333960
O        4.19618099       0.15299098       2.92034510
O        3.66234601       0.15299098       0.34333960
O        1.57667199       4.98852602       2.92034510
O        1.26010433       2.48798522       2.68181231
O        3.97891367       2.65353178       0.10480681
O        3.87961333       2.65353178       2.68181231
O        1.35940467       2.48798522       0.10480681
12
Lattice="5.283543 0.0 0.0 0.0 5.137292 0.0 0.0 0.0 5.156033" Properties=species:S:1:pos:R:3 nonpolar_mpid=mp-1565 polar_mpid=mp-556605 REF_polarisation="1.0724983454431966e-06 4.231214970644326e-07 -0.02332315745265706" REF_electric_field="0.0 0.0 0.0" config_energy_weight=0.0 config_forces_weight=0.0 config_stress_weight=0.0 config_becs_weight=0.0 config_polarisability_weight=0.0 pbc="T T T"
Zr       0.10768389       3.79742974       3.92325645
Zr       5.17585911       1.33986226       1.34523995
Zr       2.74945539       1.33986226       3.92325645
Zr       2.53408761       3.79742974       1.34523995
O        0.91711211       4.90799411       0.42411981
O        4.36643089       0.22929789       3.00213631
O        3.55888361       0.22929789       0.42411981
O        1.72465939       4.90799411       3.00213631
O        1.24578019       2.44458554       2.64419934
O        4.03776281       2.69270646       0.06618284
O        3.88755169       2.69270646       2.64419934
O        1.39599131       2.44458554       0.06618284
84
Lattice="18.687057 0.0 0.0 0.0 8.2536 0.0 0.0 0.0 5.484385" Properties=species:S:1:pos:R:3 nonpolar_mpid=mp-762643 polar_mpid=mp-766664 REF_polarisation="-1.182191221870074e-08 -1.1821912218148761e-08 0.0004003671056229618" REF_electric_field="0.0 0.0 0.0" config_energy_weight=0.0 config_forces_weight=0.0 config_stress_weight=0.0 config_becs_weight=0.0 config_polarisability_weight=0.0 pbc="T T T"
Li       1.54510193       3.49088488       5.38231511
Li      17.14195507       4.76271512       2.64012261
Li      10.88863043       0.63591512       5.38231511
Li       7.79842657       7.61768488       2.64012261
Li       1.57513203       7.61397901       2.81784411
Li      17.11192497       0.63962099       0.07565161
Li      10.91866053       4.76642099       2.81784411
Li       7.76839647       3.48717901       0.07565161
Li       4.65561863       0.65908297       5.44923009
Li      14.03143837       7.59451703       2.70703759
Li      13.99914713       3.46771703       5.44923009
Li       4.68790987       4.78588297       2.70703759
Fe       0.00455964       2.05750693       2.73014879
Fe      18.68249736       6.19609307       5.47234129
Fe       9.34808814       2.06929307       2.73014879
Fe       9.33896886       6.18430693       5.47234129
Fe       3.10975053       6.19176818       5.44802353
Fe      15.57730647       2.06183182       2.70583103
Fe      12.45327903       6.18863182       5.44802353
Fe       6.23377797       2.06496818       2.70583103
Fe       3.11944911       2.07644894       2.69210910
Fe      15.56760789       6.17715106       5.43430160
Fe      12.46297761       2.05035106       2.69210910
Fe       6.22407939       6.20324894       5.43430160
Si       1.54824136       0.80487456       5.46917680
Si      17.13881564       7.44872544       2.72698430
Si      10.89176986       3.32192544       5.46917680
Si       7.79528714       4.93167456       2.72698430
Si       1.56324707       4.92973497       2.70489868
Si      17.12380993       3.32386503       5.44709118
Si      10.90677557       7.45066503       2.70489868
Si       7.78028143       0.80293497       5.44709118
Si       4.66724198       3.33518072       5.43416449
Si      14.01981502       4.91841928       2.69197199
Si      14.01077048       0.79161928       5.43416449
Si       4.67628652       7.46198072       2.69197199
O        0.20695916       8.14145008       5.47440890
O       18.48009784       0.11214992       2.73221640
O        9.55048766       4.23894992       5.47440890
O        9.13656934       4.01465008       2.73221640
O        0.23067303       4.00037136       2.72543770
O       18.45638397       4.25322864       5.46763020
O        9.57420153       0.12642864       2.72543770
O        9.11285547       8.12717136       5.46763020
O        1.55414647       5.96466213       4.03434103
O       17.13291053       2.28893787       1.29214853
O       10.89767497       6.41573787       4.03434103
O        7.78938203       1.83786213       1.29214853
O        1.55638892       1.85020951       1.29741902
O       17.13066808       6.40339049       4.03961152
O       10.89991742       2.27659049       1.29741902
O        7.78713958       5.97700951       4.03961152
O        1.55521163       1.84417613       4.14262473
O       17.13184537       6.40942387       1.40043223
O       10.89874013       2.28262387       4.14262473
O        7.78831687       5.97097613       1.40043223
O        1.55661316       5.97661334       1.39305573
O       17.13044384       2.27698666       4.13524823
O       10.90014166       6.40378666       1.39305573
O        7.78691534       1.84981334       4.13524823
O        2.87941386       8.13327902       5.43382994
O       15.80764314       0.12032098       2.69163744
O       12.22294236       4.24712098       5.43382994
O        6.46411464       4.00647902       2.69163744
O        2.90445452       4.01876863       2.69756057
O       15.78260248       4.23483137       5.43975307
O       12.24798302       0.10803137       2.69756057
O        6.43907398       8.14556863       5.43975307
O        3.32709969       4.24947326       5.43070384
O       15.35995731       4.00412674       2.68851134
O       12.67062819       8.13092674       5.43070384
O        6.01642881       0.12267326       2.68851134
O        3.34328268       0.13471526       2.69491162
O       15.34377432       8.11888474       5.43710412
O       12.68681118       3.99208474       2.69491162
O        6.00024582       4.26151526       5.43710412
O        4.66892382       6.42101192       1.37089881
O       14.01813318       1.83258808       4.11309131
O       14.01245232       5.95938808       1.37089881
O        4.67460468       2.29421192       4.11309131
O        4.67068040       6.41680259       4.00877831
O       14.01637660       1.83679741       1.26658581
O       14.01420890       5.96359741       4.00877831
O        4.67284810       2.29000259       1.26658581
20
Lattice="9.645487 0.0 -6.532676 0.0 6.896965 0.0 -0.019447 0.0 6.687141" Properties=species:S:1:pos:R:3 nonpolar_mpid=mp-21043 polar_mpid=mp-674508 REF_polarisation="0.0018684538065710484 -1.367220207069301e-07 2.2111695258362494e-05" REF_electric_field="0.0 0.0 0.0" config_energy_weight=0.0 config_forces_weight=0.0 config_stress_weight=0.0 config_becs_weight=0.0 config_polarisability_weight=0.0 pbc="T T T"
Rb       4.43427361       1.73451773      -1.25285379
Rb       9.25701711       5.18300023      -4.51919179
Rb       4.42455011       5.16244727       2.09071671
Rb       9.24729361       1.71396477      -1.17562129
Pb       1.90244935       1.71871678       2.16985072
Pb       6.72519285       5.16719928      -1.09648728
Pb       1.91217285       5.17824822      -1.17371978
Pb       6.73491635       1.72976572      -4.44005778
F        1.44384939       3.39013418       0.32400392
F        6.26659289       6.83861668      -2.94233408
F        1.43412589       3.50683082       3.66757442
F        6.25686939       0.05834832       0.40123642
F        2.08303917       0.41763192       4.16367022
F        6.90578267       3.86611442       0.89733222
F        2.09276267       6.47933308       0.82009972
F        6.91550617       3.03085058      -2.44623828
F        4.35825802       2.19394526       2.37017823
F        9.18100152       5.64242776      -0.89615977
F        4.36798152       4.70301974      -0.97339227
F        9.19072502       1.25453724      -4.23973027
288
Lattice="20.203171 0.0 0.0 0.0 20.3098 0.0 0.0 0.0 13.582567" Properties=species:S:1:pos:R:3 nonpolar_mpid=mp-644923 polar_mpid=mp-554946 REF_polarisation="1.7868857848392233e-09 8.273242732684973e-16 -1.3225597631365355e-05" REF_electric_field="0.0 0.0 0.0" config_energy_weight=0.0 config_forces_weight=0.0 config_stress_weight=0.0 config_becs_weight=0.0 config_polarisability_weight=0.0 pbc="T T T"
Si       1.51418726       6.21991687       0.05232005
Si      11.61577276      16.37481687       6.84360355
Si      18.68898374      14.08988313       0.05232005
Si       1.51418726      14.08988313       0.05232005
Si       8.58739824       3.93498313       6.84360355
Si      11.61577276       3.93498313       6.84360355
Si      18.68898374       6.21991687       0.05232005
Si       8.58739824      16.37481687       6.84360355
Si       1.55998785       7.71739904       4.78213661
Si      11.66157335      17.87229904      11.57342011
Si      18.64318315      12.59240096       4.78213661
Si       1.55998785      12.59240096       4.78213661
Si       8.54159765       2.43750096      11.57342011
Si      11.66157335       2.43750096      11.57342011
Si      18.64318315       7.71739904       4.78213661
Si       8.54159765      17.87229904      11.57342011
Si       1.58305987       1.57201914      13.56162268
Si      11.68464537      11.72691914       6.77033918
Si      18.62011113      18.73778086      13.56162268
Si       1.58305987      18.73778086      13.56162268
Si       8.51852563       8.58288086       6.77033918
Si      11.68464537       8.58288086       6.77033918
Si      18.62011113       1.57201914      13.56162268
Si       8.51852563      11.72691914       6.77033918
Si       1.60081846       4.59698106       4.78599406
Si      11.70240396      14.75188106      11.57727756
Si      18.60235254      15.71281894       4.78599406
Si       1.60081846      15.71281894       4.78599406
Si       8.50076704       5.55791894      11.57727756
Si      11.70240396       5.55791894      11.57727756
Si      18.60235254       4.59698106       4.78599406
Si       8.50076704      14.75188106      11.57727756
Si       2.44767478       8.59598068       1.87351138
Si      12.54926028      18.75088068       8.66479488
Si      17.75549622      11.71381932       1.87351138
Si       2.44767478      11.71381932       1.87351138
Si       7.65391072       1.55891932       8.66479488
Si      12.54926028       1.55891932       8.66479488
Si      17.75549622       8.59598068       1.87351138
Si       7.65391072      18.75088068       8.66479488
Si       2.49165708       3.81613018       1.89679190
Si      12.59324258      13.97103018       8.68807540
Si      17.71151392      16.49366982       1.89679190
Si       2.49165708      16.49366982       1.89679190
Si       7.60992842       6.33876982       8.68807540
Si      12.59324258       6.33876982       8.68807540
Si      17.71151392       3.81613018       1.89679190
Si       7.60992842      13.97103018       8.68807540
Si       3.65499607       3.80101969       6.89764858
Si      13.75658157      13.95591969       0.10636508
Si      16.54817493      16.50878031       6.89764858
Si       3.65499607      16.50878031       6.89764858
Si       6.44658943       6.35388031       0.10636508
Si      13.75658157       6.35388031       0.10636508
Si      16.54817493       3.80101969       6.89764858
Si       6.44658943      13.95591969       0.10636508
Si       3.82910700       8.63901715       6.75941880
Si      13.93069250      18.79391715      13.55070230
Si      16.37406400      11.67078285       6.75941880
Si       3.82910700      11.67078285       6.75941880
Si       6.27247850       1.51588285      13.55070230
Si      13.93069250       1.51588285      13.55070230
Si      16.37406400       8.63901715       6.75941880
Si       6.27247850      18.79391715      13.55070230
Si       3.85868444       2.47342899      11.67994818
Si      13.96026994      12.62832899       4.88866468
Si      16.34448656      17.83637101      11.67994818
Si       3.85868444      17.83637101      11.67994818
Si       6.24290106       7.68147101       4.88866468
Si      13.96026994       7.68147101       4.88866468
Si      16.34448656       2.47342899      11.67994818
Si       6.24290106      12.62832899       4.88866468
Si       3.99299512       5.65831028      11.75322613
Si      14.09458062      15.81321028       4.96194263
Si      16.21017588      14.65148972      11.75322613
Si       3.99299512      14.65148972      11.75322613
Si       6.10859038       4.49658972       4.96194263
Si      14.09458062       4.49658972       4.96194263
Si      16.21017588       5.65831028      11.75322613
Si       6.10859038      15.81321028       4.96194263
Si       4.42168621       6.25627141       8.70293473
Si      14.52327171      16.41117141       1.91165123
Si      15.78148479      14.05352859       8.70293473
Si       4.42168621      14.05352859       8.70293473
Si       5.67989929       3.89862859       1.91165123
Si      14.52327171       3.89862859       1.91165123
Si      15.78148479       6.25627141       8.70293473
Si       5.67989929      16.41117141       1.91165123
Si       4.53381381       1.56722603       8.75126150
Si      14.63539931      11.72212603       1.95997800
Si      15.66935719      18.74257397       8.75126150
Si       4.53381381      18.74257397       8.75126150
Si       5.56777169       8.58767397       1.95997800
Si      14.63539931       8.58767397       1.95997800
Si      15.66935719       1.56722603       8.75126150
Si       5.56777169      11.72212603       1.95997800
O        1.70254142       5.02486793       1.14858261
O       11.80412692      15.17976793       7.93986611
O       18.50062958      15.28493207       1.14858261
O        1.70254142      15.28493207       1.14858261
O        8.39904408       5.13003207       7.93986611
O       11.80412692       5.13003207       7.93986611
O       18.50062958       5.02486793       1.14858261
O        8.39904408      15.17976793       7.93986611
O        1.70345057       7.66784313       0.77347286
O       11.80503607      17.82274313       7.56475636
O       18.49972043      12.64195687       0.77347286
O        1.70345057      12.64195687       0.77347286
O        8.39813493       2.48705687       7.56475636
O       11.80503607       2.48705687       7.56475636
O       18.49972043       7.66784313       0.77347286
O        8.39813493      17.82274313       7.56475636
O        1.75119066       8.43126820       3.33446587
O       11.85277616      18.58616820      10.12574937
O       18.45198034      11.87853180       3.33446587
O        1.75119066      11.87853180       3.33446587
O        8.35039484       1.72363180      10.12574937
O       11.85277616       1.72363180      10.12574937
O       18.45198034       8.43126820       3.33446587
O        8.35039484      18.58616820      10.12574937
O        2.03051970       6.16152619       4.67779533
O       12.13210520      16.31642619      11.46907883
O       18.17265130      14.14827381       4.67779533
O        2.03051970      14.14827381       4.67779533
O        8.07106580       3.99337381      11.46907883
O       12.13210520       3.99337381      11.46907883
O       18.17265130       6.16152619       4.67779533
O        8.07106580      16.31642619      11.46907883
O        2.02605480       2.36812268       1.32447686
O       12.12764030      12.52302268       8.11576036
O       18.17711620      17.94167732       1.32447686
O        2.02605480      17.94167732       1.32447686
O        8.07553070       7.78677732       8.11576036
O       12.12764030       7.78677732       8.11576036
O       18.17711620       2.36812268       1.32447686
O        8.07553070      12.52302268       8.11576036
O        2.15917349       3.81675978       3.48028831
O       12.26075899      13.97165978      10.27157181
O       18.04399751      16.49304022       3.48028831
O        2.15917349      16.49304022       3.48028831
O        7.94241201       6.33814022      10.27157181
O       12.26075899       6.33814022      10.27157181
O       18.04399751       3.81675978       3.48028831
O        7.94241201      13.97165978      10.27157181
O        2.24360255       3.92214734       6.10609733
O       12.34518805      14.07704734      12.89738083
O       17.95956845      16.38765266       6.10609733
O        2.24360255      16.38765266       6.10609733
O        7.85798295       6.23275266      12.89738083
O       12.34518805       6.23275266      12.89738083
O       17.95956845       3.92214734       6.10609733
O        7.85798295      14.07704734      12.89738083
O        2.37898399       2.18945737      12.28748282
O       12.48056949      12.34435737       5.49619932
O       17.82418701      18.12034263      12.28748282
O        2.37898399      18.12034263      12.28748282
O        7.72260151       7.96544263       5.49619932
O       12.48056949       7.96544263       5.49619932
O       17.82418701       2.18945737      12.28748282
O        7.72260151      12.34435737       5.49619932
O        2.45547320       8.45582275       5.91037253
O       12.55705870      18.61072275      12.70165603
O       17.74769780      11.85397725       5.91037253
O        2.45547320      11.85397725       5.91037253
O        7.64611230       1.69907725      12.70165603
O       12.55705870       1.69907725      12.70165603
O       17.74769780       8.45582275       5.91037253
O        7.64611230      18.61072275      12.70165603
O        2.56054989       6.05089871      12.40992966
O       12.66213539      16.20579871       5.61864616
O       17.64262111      14.25890129      12.40992966