80
Lattice="11.884013 0.0 0.0 0.0 13.359869 0.0 0.0 0.0 7.823291" Properties=species:S:1:pos:R:3 nonpolar_mpid=mp-558238 polar_mpid=mp-27925 REF_polarisation="8.042545947494921e-09 -1.6097677763633245e-08 -0.00010643833574462953" REF_electric_field="0.0 0.0 0.0" config_energy_weight=0.0 config_forces_weight=0.0 config_stress_weight=0.0 config_becs_weight=0.0 config_polarisability_weight=0.0 pbc="T T T"
K        0.77971009       7.58490531       3.93021799
K       11.10430291       5.77496369       0.01857249
K        6.72171659      12.45489819       3.93021799
K        5.16229641       0.90497081       0.01857249
K        1.01069965       1.26550023       0.03837324
K       10.87331335      12.09436877       3.95001874
K        6.95270615       5.41443427       0.03837324
K        4.93130685       7.94543473       3.95001874
Er       0.08102520       3.45436781       3.95139564
Er      11.80298780       9.90550119       0.03975014
Er       6.02303170       3.22556669       3.95139564
Er       5.86098130      10.13430231       0.03975014
Er       2.49564273       0.84028232       3.95029256
Er       9.38837027      12.51958668       0.03864706
Er       8.43764923       5.83965218       3.95029256
Er       3.44636377       7.52021682       0.03864706
Er       2.89704904      11.18723366       5.72205674
Er       8.98696396       2.17263534       1.81041124
Er       8.83905554       8.85256984       5.72205674
Er       3.04495746       4.50729916       1.81041124
Er       2.89740556      11.18778142       2.18014780
Er       8.98660744       2.17208758       6.09179330
Er       8.83941206       8.85202208       2.18014780
Er       3.04460094       4.50784692       6.09179330
F        0.31314374       1.19059145       3.94975275
F       11.57086926      12.16927755       0.03810725
F        6.25515024       5.48934305       3.94975275
F        5.62886276       7.87052595       0.03810725
F        0.87948827      10.26470799       2.02906440
F       11.00452473       3.09516101       5.94070990
F        6.82149477       9.77509551       2.02906440
F        5.06251823       3.58477349       5.94070990
F        0.88106884      10.26172874       5.87458744
F       11.00294416       3.09814026       1.96294194
F        6.82307534       9.77807476       5.87458744
F        5.06093766       3.58179424       1.96294194
F        1.04131287       5.03339745       5.29035972
F       10.84270013       8.32647155       1.37871422
F        6.98331937       1.64653705       5.29035972
F        4.90069363      11.71333195       1.37871422
F        1.04455721       5.03498727       2.61826774
F       10.83945579       8.32488173       6.52991324
F        6.98656371       1.64494723       2.61826774
F        4.89744929      11.71492177       6.52991324
F        1.47118139       8.35598351       0.04298116
F       10.41283161       5.00388549       3.95462666
F        7.41318789      11.68381999       0.04298116
F        4.47082511       1.67604901       3.95462666
F        1.58683660      12.08680708       3.95137999
F       10.29717640       1.27306192       0.03973449
F        7.52884310       7.95299642       3.95137999
F        4.35516990       5.40687258       0.03973449
F        1.93804484       5.61034339       0.04036036
F        9.94596816       7.74952561       3.95200586
F        7.88005134       1.06959111       0.04036036
F        4.00396166      12.29027789       3.95200586
F        2.01643179       2.65361734       2.62814073
F        9.86758121      10.70625166       6.53978623
F        7.95843829       4.02631716       2.62814073
F        3.92557471       9.33355184       6.53978623
F        2.01720425       2.65369750       5.27201410
F        9.86680875      10.70617150       1.36036860
F        7.95921075       4.02623700       5.27201410
F        3.92480225       9.33363200       1.36036860
F        2.28307339      11.20766090       0.03969538
F        9.60093961       2.15220810       3.95134088
F        8.22507989       8.83214260       0.03969538
F        3.65893311       4.52772640       3.95134088
F        2.59849886       0.03160945       6.02168879
F        9.28551414      13.32825955       2.11004329
F        8.54050536       6.64832505       6.02168879
F        3.34350764       6.71154395       2.11004329
F        2.59873654       0.03095482       1.87999941
F        9.28527646      13.32891418       5.79164491
F        8.54074304       6.64897968       1.87999941
F        3.34326996       6.71088932       5.79164491
F        2.87892592       3.14205415       0.03877223
F        9.00508708      10.21781485       3.95041773
F        8.82093242       3.53788035       0.03877223
F        3.06308058       9.82198865       3.95041773
30
Lattice="5.997528 0.0 0.0 -2.998764 5.194012 0.0 0.0 0.0 11.726441" Properties=species:S:1:pos:R:3 nonpolar_mpid=mp-755342 polar_mpid=mp-768505 REF_polarisation="-3.487888408457914e-07 1.2694328385344445e-07 -0.0160161849960396" REF_electric_field="0.0 0.0 0.0" config_energy_weight=0.0 config_forces_weight=0.0 config_stress_weight=0.0 config_becs_weight=0.0 config_polarisability_weight=0.0 pbc="T T T"
Lu      -0.00000300       3.46267640       2.93686370
Lu       2.99876700       1.73133560       8.80008420
Lu      -0.00000300       3.46267640       8.80008420
Lu       2.99876700       1.73133560       2.93686370
Lu       0.00000000       0.00000000       2.93686370
Lu       0.00000000       0.00000000       8.80008420
Ga      -0.99958700       1.73133560       5.86847395
Ga       1.99917700       3.46267640       5.86847395
Ga      -1.99917700       3.46267640       0.00525345
Ga       3.99835400       0.00000000       0.00525345
Ga       1.99917400       0.00000000       5.86847395
Ga       0.99958700       1.73133560       0.00525345
O       -0.99958700       1.73133560       3.93884117
O        1.99917700       3.46267640       3.93884117
O       -1.99917700       3.46267640       9.80206167
O        3.99835400       0.00000000       9.80206167
O        1.99917400       0.00000000       3.93884117
O        0.99958700       1.73133560       9.80206167
O       -0.99958700       1.73133560       7.79810672
O        1.99917700       3.46267640       7.79810672
O       -1.99917700       3.46267640       1.93488622
O        3.99835400       0.00000000       1.93488622
O        1.99917400       0.00000000       7.79810672
O        0.99958700       1.73133560       1.93488622
O       -0.00000300       3.46267640       5.86847395
O        2.99876700       1.73133560       0.00525345
O       -0.00000300       3.46267640       0.00525345
O        2.99876700       1.73133560       5.86847395
O        0.00000000       0.00000000       0.00525345
O        0.00000000       0.00000000       5.86847395
24
Lattice="9.053512 0.0 -1.050997 0.0 6.560812 0.0 -0.015022 0.0 12.508848" Properties=species:S:1:pos:R:3 nonpolar_mpid=mp-568986 polar_mpid=mp-27181 REF_polarisation="-1.2170995068142714e-05 -2.5088364929120974e-16 9.360576371460765e-06" REF_electric_field="0.0 0.0 0.0" config_energy_weight=0.0 config_forces_weight=0.0 config_stress_weight=0.0 config_becs_weight=0.0 config_polarisability_weight=0.0 pbc="T T T"
K        1.80907577       1.31553466       8.29769688
K        1.81658677       5.24527734       2.04327288
K        6.99892296       1.96588827       3.09472135
K        6.99141196       4.59492373       9.34914535
Au       4.39879812       1.63945507      11.94566856
Au       4.40630912       4.92135693       5.69124456
Au       8.92469495       1.63828724      11.42704865
Au       8.93220595       4.92252476       5.17262465
Cl       0.72532510       1.95369828       2.11436033
Cl       0.71781410       4.60711372       8.36878433
Cl       0.98867427       3.01199006       5.50544489
Cl       0.98116327       3.54882194      11.75986889
Cl       2.91473650       0.00186983       4.99544100
Cl       2.90722550       6.55894217      11.24986500
Cl       4.34260865       2.62551887       9.84440670
Cl       4.35011965       3.93529313       3.58998270
Cl       4.46933062       0.65380460       1.53812372
Cl       4.46181962       5.90700740       7.79254772
Cl       5.90614420       3.28027478       0.13252438
Cl       5.89863320       3.28053722       6.38694838
Cl       7.82279651       0.27277232       5.89030990
Cl       7.83030751       6.28803968      -0.36411410
Cl       8.08542077       1.32298118       9.28200391
Cl       8.09293177       5.23783082       3.02757991
72
Lattice="11.362559 0.0 -0.52317 0.0 11.379749 0.0 0.348352 0.0 9.179524" Properties=species:S:1:pos:R:3 nonpolar_mpid=mp-625541 polar_mpid=mp-625789 REF_polarisation="0.00015199932777242763 -4.895362570108172e-08 -3.1960325270145635e-05" REF_electric_field="0.0 0.0 0.0" config_energy_weight=0.0 config_forces_weight=0.0 config_stress_weight=0.0 config_becs_weight=0.0 config_polarisability_weight=0.0 pbc="T T T"
Sn       0.94259520       3.85730248       9.13007532
Sn       6.62387470       9.54716560       8.86849032
Sn       0.76841920       7.52245790       4.54031332
Sn       6.44969870       1.83258340       4.27872832
Sn       2.29727769       0.50717265       9.01741990
Sn       7.97855719       6.19704715       8.75583490
Sn       2.12310169      10.87257635       4.42765790
Sn       7.80438119       5.18270185       4.16607290
Sn       3.19226622       2.88328700       6.46974018
Sn       8.87354572       8.57316150       6.20815518
Sn       3.01809022       8.49646200       1.87997818
Sn       8.69936972       2.80658750       1.61839318
Sn       3.03642559       2.83993016       2.38323474
Sn       8.71770509       8.52980466       2.12164974
Sn       3.21060159       8.53981884       6.97299674
Sn       8.89188109       2.84994434       6.71141174
Sn       4.29453592       5.20476718       8.97716614
Sn       9.97582679      10.89464168       8.71558062
Sn       4.12035992       6.17498182       4.38740414
Sn       9.80165079       0.48510732       4.12581862
Sn       5.29033288       1.85777816      -0.24015457
Sn      10.97161238       7.54765266      -0.50173957
Sn       5.46450888       9.52197084       4.34960743
Sn      11.14578838       3.83210772       4.08802243
H        0.28307712       1.90271679       2.12439211
H        5.96435662       7.59259129       1.86280711
H        0.45725312       9.47703221       6.71415411
H        6.13853262       3.78715771       6.45256911
H        2.11074691       5.77146730       2.26585326
H        7.79202641       0.08159280       2.00426826
H        2.28492291       5.60828170       6.85561526
H        7.96620241      11.29815620       6.59403026
H        4.15442791       0.12539345       6.77524748
H        9.83570741       5.81526795       6.51366248
H        3.98025191      11.25435555       2.18548548
H        9.66153141       5.56448105       1.92390048
H        5.76537208       3.77335407       1.93486668
H        0.08409258       9.46322857       2.19645168
H        5.93954808       7.60639493       6.52462868
H        0.25826858       1.91652043       6.78621368
O        1.16931490       9.31802297       6.04410669
O        6.85059440       3.62814847       5.78252169
O        0.99513890       2.06172603       1.45434469
O        6.67641840       7.75160053       1.19275969
O        1.72440353       2.26244204       7.93320277
O        7.40568303       7.95231654       7.67161777
O        1.55022753       9.11730696       3.34344077
O        7.23150703       3.42743246       3.08185577
O        2.44819665       4.87246713       7.50450449
O        8.12947615      10.56234163       7.24291949
O        2.27402065       6.50728187       2.91474249
O        7.95530015       0.81740737       2.65315749
O        2.38177810       4.37692458       1.00652007
O        8.06305760      10.06679908       0.74493507
O        2.55595410       7.00282442       5.59628207
O        8.23723360       1.31294992       5.33469707
O        3.58666658       1.32426139       0.94391644
O        9.26794608       7.01413589       0.68233144
O        3.76084258      10.05548761       5.53367844
O        9.44212208       4.36561311       5.27209344
O        4.02846650       0.86134458       7.42842401
O        9.70974600       6.55121908       7.16683901
O        3.85429050      10.51840442       2.83866201
O        9.53557000       4.82852992       2.57707701
O        4.77058689       3.46561152       7.82610556
O       10.45186639       9.15548602       7.56452056
O        4.59641089       7.91413748       3.23634356
O       10.27769039       2.22426298       2.97475856
O        4.99909475       3.64009721       1.31573718
O       10.68037425       9.32997171       1.05415218
O        5.17327075       7.73965179       5.90549918
O       10.85455025       2.04977729       5.64391418
12
Lattice="5.216755 0.0 0.0 0.0 5.143629 0.0 0.0 0.0 5.153" Properties=species:S:1:pos:R:3 nonpolar_mpid=mp-1565 polar_mpid=mp-556605 REF_polarisation="7.965680120325871e-07 5.634669433304659e-07 -0.013221390897791474" REF_electric_field="0.0 0.0 0.0" config_energy_weight=0.0 config_forces_weight=0.0 config_stress_weight=0.0 config_becs_weight=0.0 config_polarisability_weight=0.0 pbc="T T T"
Zr       0.05316395       3.82991529       3.98388736
Zr       5.16359105       1.31371371       1.40738736
Zr       2.66154145       1.31371371       3.98388736
Zr       2.55521355       3.82991529       1.40738736
O        1.10485132       5.02883863       0.30297063
O        4.11190368       0.11479037       2.87947064
O        3.71322882       0.11479037       0.30297063
O        1.50352618       5.02883863       2.87947064
O        1.26710806       2.50971032       2.70061000
O        3.94964694       2.63391868       0.12411000
O        3.87548556       2.63391868       2.70061000
O        1.34126944       2.50971032       0.12411000
12
Lattice="5.26128 0.0 0.0 0.0 5.139404 0.0 0.0 0.0 5.155022" Properties=species:S:1:pos:R:3 nonpolar_mpid=mp-1565 polar_mpid=mp-556605 REF_polarisation="1.0770366006620168e-06 5.639301578697478e-07 -0.020196709764006785" REF_electric_field="0.0 0.0 0.0" config_energy_weight=0.0 config_forces_weight=0.0 config_stress_weight=0.0 config_becs_weight=0.0 config_polarisability_weight=0.0 pbc="T T T"
Zr       0.08935758       3.80825211       3.94347326
Zr       5.17192242       1.33115189       1.36596226
Zr       2.71999758       1.33115189       3.94347326
Zr       2.54128242       3.80825211       1.36596226
O        0.98026064       4.94824387       0.38371922
O        4.28101936       0.19116013       2.96123022
O        3.61090064       0.19116013       0.38371922
O        1.65037936       4.94824387       2.96123022
O        1.25299488       2.46627663       2.66301219
O        4.00828512       2.67312737       0.08550119
O        3.88363488       2.67312737       2.66301219
O        1.37764512       2.46627663       0.08550119
84
Lattice="18.683958 0.0 0.0 0.0 8.254309 0.0 0.0 0.0 5.485657" Properties=species:S:1:pos:R:3 nonpolar_mpid=mp-762643 polar_mpid=mp-766664 REF_polarisation="1.2557663193686176e-15 -1.1092803851928983e-15 0.0003112287817230995" REF_electric_field="0.0 0.0 0.0" config_energy_weight=0.0 config_forces_weight=0.0 config_stress_weight=0.0 config_becs_weight=0.0 config_polarisability_weight=0.0 pbc="T T T"
Li       1.54753619       3.48611661       5.39892876
Li      17.13642181       4.76819239       2.65610026
Li      10.88951519       0.64103789       5.39892876
Li       7.79444281       7.61327111       2.65610026
Li       1.57089114       7.61039035       2.79436076
Li      17.11306686       0.64391865       0.05153226
Li      10.91287014       4.77107315       2.79436076
Li       7.77108786       3.48323585       0.05153226
Li       4.65843388       0.65905705       5.45098765
Li      14.02552412       7.59525195       2.70815915
Li      14.00041288       3.46809745       5.45098765
Li       4.68354512       4.78621155       2.70815915
Fe       0.00354995       2.05899611       2.72613565
Fe      18.68040805       6.19531289       5.46896415
Fe       9.34552895       2.06815839       2.72613565
Fe       9.33842905       6.18615061       5.46896415
Fe       3.11029980       6.19195339       5.45004960
Fe      15.57365820       2.06235561       2.70722110
Fe      12.45227880       6.18951011       5.45004960
Fe       6.23167920       2.06479889       2.70722110
Fe       3.11782944       2.07373005       2.69654601
Fe      15.56612856       6.18057895       5.43937451
Fe      12.45980844       2.05342445       2.69654601
Fe       6.22414956       6.20088455       5.43937451
Si       1.54998379       0.80347444       5.46650657
Si      17.13397421       7.45083456       2.72367807
Si      10.89196279       3.32368006       5.46650657
Si       7.79199521       4.93062894       2.72367807
Si       1.56166126       4.92911840       2.70649151
Si      17.12229674       3.32519060       5.44932001
Si      10.90364026       7.45234510       2.70649151
Si       7.78031774       0.80196390       5.44932001
Si       4.66747692       3.33399795       5.43926480
Si      14.01648108       4.92031105       2.69643630
Si      14.00945592       0.79315655       5.43926480
Si       4.67450208       7.46115245       2.69643630
O        0.21038137       8.13969792       5.47057693
O       18.47357663       0.11461108       2.72774843
O        9.55236037       4.24176558       5.47057693
O        9.13159763       4.01254342       2.72774843
O        0.22882243       4.00143312       2.72247123
O       18.45513557       4.25287588       5.46529973
O        9.57080143       0.12572138       2.72247123
O        9.11315657       8.12858762       5.46529973
O        1.55458004       5.96641265       4.03301663
O       17.12937796       2.28789635       1.29018813
O       10.89655904       6.41505085       4.03301663
O        7.78739896       1.83925815       1.29018813
O        1.55631765       1.84886616       1.29429140
O       17.12764035       6.40544284       4.03711990
O       10.89829665       2.27828834       1.29429140
O        7.78566135       5.97602066       4.03711990
O        1.55540214       1.84416946       4.14223057
O       17.12855586       6.41013954       1.39940207
O       10.89738114       2.28298504       4.14223057
O        7.78657686       5.97132396       1.39940207
O        1.55650449       5.97571525       1.39366407
O       17.12745351       2.27859375       4.13649257
O       10.89848349       6.40574825       1.39366407
O        7.78547451       1.84856075       4.13649257
O        2.88172026       8.13334210       5.43900697
O       15.80223774       0.12096690       2.69617847
O       12.22369926       4.24812140       5.43900697
O        6.46025874       4.00618760       2.69617847
O        2.90120763       4.01574609       2.70078642
O       15.78275037       4.23856291       5.44361492
O       12.24318663       0.11140841       2.70078642
O        6.44077137       8.14290059       5.44361492
O        3.32875264       4.24995385       5.43657134
O       15.35520536       4.00435515       2.69374284
O       12.67073164       8.13150965       5.43657134
O        6.01322636       0.12279935       2.69374284
O        3.34134563       0.13216800       2.69872382
O       15.34261237       8.12214100       5.44155232
O       12.68332463       3.99498650       2.69872382
O        6.00063337       4.25932250       5.44155232
O        4.66878479       6.41915324       1.37642265
O       14.01517321       1.83515576       4.11925115
O       14.01076379       5.96231026       1.37642265
O        4.67319421       2.29199874       4.11925115
O        4.67014872       6.41587628       4.01313112
O       14.01380928       1.83843272       1.27030262
O       14.01212772       5.96558722       4.01313112
O        4.67183028       2.28872178       1.27030262
20
Lattice="9.667516 0.0 -6.569436 0.0 6.894988 0.0 -0.026045 0.0 6.715094" Properties=species:S:1:pos:R:3 nonpolar_mpid=mp-21043 polar_mpid=mp-674508 REF_polarisation="0.001589598445014345 -1.139676860474532e-07 4.617451467248821e-05" REF_electric_field="0.0 0.0 0.0" config_energy_weight=0.0 config_forces_weight=0.0 config_stress_weight=0.0 config_becs_weight=0.0 config_polarisability_weight=0.0 pbc="T T T"
Rb       4.42288684       1.73255190      -1.24002877
Rb       9.25664484       5.18004590      -4.52474677
Rb       4.40986434       5.16243610       2.11751823
Rb       9.24362234       1.71494210      -1.16719977
Pb       1.90015651       1.71901014       2.18255809
Pb       6.73391451       5.16650414      -1.10215991
Pb       1.91317901       5.17597786      -1.17498891
Pb       6.74693701       1.72848386      -4.45970691
F        1.50891556       3.39749844       0.35435291
F        6.34267356       6.84499244      -2.93036509
F        1.49589306       3.49748956       3.71189991
F        6.32965106       0.04999556       0.42718191
F        2.05259003       0.35787056       4.13835599
F        6.88634803       3.80536456       0.85363799
F        2.06561253       6.53711744       0.78080899
F        6.89937053       3.08962344      -2.50390901
F        4.35270844       2.12623503       2.35811682
F        9.18646644       5.57372903      -0.92660118
F        4.36573094       4.76875297      -0.99943018
F        9.19948894       1.32125897      -4.28414818
288
Lattice="20.191255 0.0 0.0 0.0 20.280113 0.0 0.0 0.0 13.583659" Properties=species:S:1:pos:R:3 nonpolar_mpid=mp-644923 polar_mpid=mp-554946 REF_polarisation="-4.1041868248771957e-16 2.481972819805492e-15 -1.783355995548408e-05" REF_electric_field="0.0 0.0 0.0" config_energy_weight=0.0 config_forces_weight=0.0 config_stress_weight=0.0 config_becs_weight=0.0 config_polarisability_weight=0.0 pbc="T T T"
Si       1.50955880       6.22027570       0.04736622
Si      11.60518630      16.36033220       6.83919572
Si      18.68169620      14.05983730       0.04736622
Si       1.50955880      14.05983730       0.04736622
Si       8.58606870       3.91978080       6.83919572
Si      11.60518630       3.91978080       6.83919572
Si      18.68169620       6.22027570       0.04736622
Si       8.58606870      16.36033220       6.83919572
Si       1.56215702       7.70599678       4.79653941
Si      11.65778452      17.84605328      11.58836891
Si      18.62909798      12.57411622       4.79653941
Si       1.56215702      12.57411622       4.79653941
Si       8.53347048       2.43405972      11.58836891
Si      11.65778452       2.43405972      11.58836891
Si      18.62909798       7.70599678       4.79653941
Si       8.53347048      17.84605328      11.58836891
Si       1.58317611       1.57400041      13.56620400
Si      11.67880361      11.71405691       6.77437450
Si      18.60807889      18.70611259      13.56620400
Si       1.58317611      18.70611259      13.56620400
Si       8.51245139       8.56605609       6.77437450
Si      11.67880361       8.56605609       6.77437450
Si      18.60807889       1.57400041      13.56620400
Si       8.51245139      11.71405691       6.77437450
Si       1.60177226       4.59332391       4.78874239
Si      11.69739976      14.73338041      11.58057189
Si      18.58948274      15.68678909       4.78874239
Si       1.60177226      15.68678909       4.78874239
Si       8.49385524       5.54673259      11.58057189
Si      11.69739976       5.54673259      11.58057189
Si      18.58948274       4.59332391       4.78874239
Si       8.49385524      14.73338041      11.58057189
Si       2.44251593       8.57877172       1.88224688
Si      12.53814343      18.71882822       8.67407638
Si      17.74873907      11.70134128       1.88224688
Si       2.44251593      11.70134128       1.88224688
Si       7.65311157       1.56128478       8.67407638
Si      12.53814343       1.56128478       8.67407638
Si      17.74873907       8.57877172       1.88224688
Si       7.65311157      18.71882822       8.67407638
Si       2.49004614       3.82371391       1.89411899
Si      12.58567364      13.96377041       8.68594849
Si      17.70120886      16.45639909       1.89411899
Si       2.49004614      16.45639909       1.89411899
Si       7.60558136       6.31634259       8.68594849
Si      12.58567364       6.31634259       8.68594849
Si      17.70120886       3.82371391       1.89411899
Si       7.60558136      13.96377041       8.68594849
Si       3.64656084       3.76806528       6.88047646
Si      13.74218834      13.90812178       0.08864696
Si      16.54469416      16.51204772       6.88047646
Si       3.64656084      16.51204772       6.88047646
Si       6.44906666       6.37199122       0.08864696
Si      13.74218834       6.37199122       0.08864696
Si      16.54469416       3.76806528       6.88047646
Si       6.44906666      13.90812178       0.08864696
Si       3.83163389       8.62908668       6.76151077
Si      13.92726139      18.76914318      13.55334027
Si      16.35962111      11.65102632       6.76151077
Si       3.83163389      11.65102632       6.76151077
Si       6.26399361       1.51096982      13.55334027
Si      13.92726139       1.51096982      13.55334027
Si      16.35962111       8.62908668       6.76151077
Si       6.26399361      18.76914318      13.55334027
Si       3.85909399       2.47490387      11.68467706
Si      13.95472149      12.61496037       4.89284756
Si      16.33216101      17.80520913      11.68467706
Si       3.85909399      17.80520913      11.68467706
Si       6.23653351       7.66515263       4.89284756
Si      13.95472149       7.66515263       4.89284756
Si      16.33216101       2.47490387      11.68467706
Si       6.23653351      12.61496037       4.89284756
Si       3.99586956       5.65827321      11.75322020
Si      14.09149706      15.79832971       4.96139070
Si      16.19538544      14.62183979      11.75322020
Si       3.99586956      14.62183979      11.75322020
Si       6.09975794       4.48178329       4.96139070
Si      14.09149706       4.48178329       4.96139070
Si      16.19538544       5.65827321      11.75322020
Si       6.09975794      15.79832971       4.96139070
Si       4.41942151       6.22266875       8.69086578
Si      14.51504901      16.36272525       1.89903628
Si      15.77183349      14.05744425       8.69086578
Si       4.41942151      14.05744425       8.69086578
Si       5.67620599       3.91738775       1.89903628
Si      14.51504901       3.91738775       1.89903628
Si      15.77183349       6.22266875       8.69086578
Si       5.67620599      16.36272525       1.89903628
Si       4.54069019       1.57383817       8.75715404
Si      14.63631769      11.71389467       1.96532454
Si      15.65056481      18.70627483       8.75715404
Si       4.54069019      18.70627483       8.75715404
Si       5.55493731       8.56621833       1.96532454
Si      14.63631769       8.56621833       1.96532454
Si      15.65056481       1.57383817       8.75715404
Si       5.55493731      11.71389467       1.96532454
O        1.68897829       5.02095038       1.14075568
O       11.78460579      15.16100688       7.93258518
O       18.50227671      15.25916262       1.14075568
O        1.68897829      15.25916262       1.14075568
O        8.40664921       5.11910612       7.93258518
O       11.78460579       5.11910612       7.93258518
O       18.50227671       5.02095038       1.14075568
O        8.40664921      15.16100688       7.93258518
O        1.68582845       7.66466591       0.77921301
O       11.78145595      17.80472241       7.57104251
O       18.50542655      12.61544709       0.77921301
O        1.68582845      12.61544709       0.77921301
O        8.40979905       2.47539059       7.57104251
O       11.78145595       2.47539059       7.57104251
O       18.50542655       7.66466591       0.77921301
O        8.40979905      17.80472241       7.57104251
O        1.74906746       8.41391468       3.34493528
O       11.84469496      18.55397118      10.13676478
O       18.44218754      11.86619832       3.34493528
O        1.74906746      11.86619832       3.34493528
O        8.34656004       1.72614182      10.13676478
O       11.84469496       1.72614182      10.13676478
O       18.44218754       8.41391468       3.34493528
O        8.34656004      18.55397118      10.13676478
O        2.05019984       6.15414225       4.70417053
O       12.14582734      16.29419875      11.49600003
O       18.14105516      14.12597075       4.70417053
O        2.05019984      14.12597075       4.70417053
O        8.04542766       3.98591425      11.49600003
O       12.14582734       3.98591425      11.49600003
O       18.14105516       6.15414225       4.70417053
O        8.04542766      16.29419875      11.49600003
O        2.04234544       2.36977176       1.32226053
O       12.13797294      12.50982826       8.11409003
O       18.14890956      17.91034124       1.32226053
O        2.04234544      17.91034124       1.32226053
O        8.05328206       7.77028474       8.11409003
O       12.13797294       7.77028474       8.11409003
O       18.14890956       2.36977176       1.32226053
O        8.05328206      12.50982826       8.11409003
O        2.15557800       3.82158449       3.47677827
O       12.25120550      13.96164099      10.26860777
O       18.03567700      16.45852851       3.47677827
O        2.15557800      16.45852851       3.47677827
O        7.94004950       6.31847201      10.26860777
O       12.25120550       6.31847201      10.26860777
O       18.03567700       3.82158449       3.47677827
O        7.94004950      13.96164099      10.26860777
O        2.22687332       3.89100332       6.10289348
O       12.32250082      14.03105982      12.89472298
O       17.96438168      16.38910968       6.10289348
O        2.22687332      16.38910968       6.10289348
O        7.86875418       6.24905318      12.89472298
O       12.32250082       6.24905318      12.89472298
O       17.96438168       3.89100332       6.10289348
O        7.86875418      14.03105982      12.89472298
O        2.37879233       2.17838834      12.28588980