6
Lattice="4.022431 -4.2e-05 -2.4e-05 -2.011251 3.483589 0.0 -3.7e-05 -2.1e-05 6.163369" Properties=species:S:1:pos:R:3:REF_becs:R:9 REF_electric_field="0.0 0.0 0.0" REF_polarisability="0.5651580888347187 -9.589085321286694e-05 -9.03204302046506e-05 -9.7323247700694e-05 0.5651647733423285 3.9868313244519785e-05 -9.127535986320198e-05 4.201690497626037e-05 0.550247737568626" REF_piezoelectric="1e-05 -2e-05 2e-05 0.04515 8e-05 0.05159 0.04507 -0.04522 7e-05 2e-05 0.05147 5e-05 -0.02187 -0.02194 0.21721 6e-05 -2e-05 -1e-05" REF_dielectric_ionic="42.786026 -0.006132 0.009686 -0.006132 42.792463 0.006689 0.009686 0.006689 30.48558" config_energy_weight=0.0 config_forces_weight=0.0 config_stress_weight=0.0 pbc="T T T"
Th       2.01103351       1.16106786       1.54311286       5.39928000      -0.00071000       0.00005000      -0.00070000       5.40034000      -0.00010000      -0.00009000      -0.00013000       5.23242000
Th       0.00009617       2.32244812       4.49395703       5.28749000      -0.00089000      -0.00020000      -0.00082000       5.28819000       0.00009000      -0.00006000       0.00005000       4.88950000
H       -0.00001936      -0.00001087       5.23447533       0.33174000       0.00003000       0.00007000      -0.00001000       0.33175000      -0.00009000      -0.00005000      -0.00003000      -0.54718000
N        2.01102881       1.16106994       4.00110140      -4.21057000       0.00082000       0.00031000       0.00092000      -4.21152000      -0.00001000       0.00024000       0.00017000      -3.16548000
N        0.00012209       2.32246295       2.18620678      -3.90170000       0.00096000       0.00012000       0.00077000      -3.90274000       0.00011000       0.00028000       0.00013000      -3.65463000
N        2.01117333       3.48354315       0.10673788      -2.90624000      -0.00020000      -0.00035000      -0.00016000      -2.90602000       0.00000000      -0.00031000      -0.00018000      -2.75465000
33
Lattice="3.117361 -5.399427 0.0 3.117361 5.399427 0.0 0.0 0.0 15.007698" Properties=species:S:1:pos:R:3:REF_becs:R:9 REF_electric_field="0.0 0.0 0.0" REF_polarisability="0.15130144242502577 0.0 0.0 0.0 0.15130144242502577 0.0 0.0 0.0 0.3538945441349921" REF_piezoelectric="-0.19248 0.19248 0.0 0.0 -0.01575 0.0 0.0 0.0 0.0 0.19248 0.0 0.01575 0.0 0.0 0.0 0.0 0.0 0.0" REF_dielectric_ionic="2.380161 3e-06 0.0 3e-06 2.380102 2.1e-05 0.0 2.1e-05 10.893671" config_energy_weight=0.0 config_forces_weight=0.0 config_stress_weight=0.0 pbc="T T T"
Lu       0.00000000       0.00000000       2.58504597       3.27029000      -0.27676000       0.00000000       0.27672000       3.27021000       0.00004000       0.00000000       0.00000000       5.61396000
Lu       3.11736100      -1.79981260       7.58760696       3.27029000      -0.27676000       0.00000000       0.27672000       3.27021000       0.00004000       0.00000000       0.00000000       5.61396000
Lu       3.11736100       1.79981260      12.59016796       3.27029000      -0.27676000       0.00000000       0.27672000       3.27021000       0.00004000       0.00000000       0.00000000       5.61396000
Lu       0.00000000       0.00000000      12.42265203       3.27029000       0.27676000       0.00000000      -0.27674000       3.27028000       0.00002000       0.00000000       0.00000000       5.61396000
Lu       3.11736100      -1.79981260       2.41753004       3.27029000       0.27676000       0.00000000      -0.27674000       3.27028000       0.00002000       0.00000000       0.00000000       5.61396000
Lu       3.11736100       1.79981260       7.42009104       3.27029000       0.27676000       0.00000000      -0.27674000       3.27028000       0.00002000       0.00000000       0.00000000       5.61396000
C        4.92198881      -1.79981260       5.00256100       0.10344000       0.00000000       0.00000000      -0.00001000       0.88674000      -1.87712000      -0.00001000      -1.82624000       4.66531000
C        4.92198881       1.79981260      10.00513700       0.10344000       0.00000000       0.00000000      -0.00001000       0.88674000      -1.87712000      -0.00001000      -1.82624000       4.66531000
C        1.80462781       0.00000000       0.00000000       0.10344000       0.00000000       0.00000000      -0.00001000       0.88674000      -1.87712000      -0.00001000      -1.82624000       4.66531000
C        2.21504709      -3.36266595       5.00256100       0.69093000      -0.33918000      -1.62567000      -0.33917000       0.29926000       0.93854000      -1.58157000       0.91313000       4.66531000
C        2.21504709       0.23695925      10.00513700       0.69093000      -0.33918000      -1.62567000      -0.33917000       0.29926000       0.93854000      -1.58157000       0.91313000       4.66531000
C        2.21504709       3.83657365       0.00000000       0.69093000      -0.33918000      -1.62567000      -0.33917000       0.29926000       0.93854000      -1.58157000       0.91313000       4.66531000
C        2.21504709      -0.23695925       5.00256100       0.69093000       0.33918000       1.62567000       0.33918000       0.29927000       0.93856000       1.58158000       0.91311000       4.66531000
C        2.21504709       3.36266595      10.00513700       0.69093000       0.33918000       1.62567000       0.33918000       0.29927000       0.93856000       1.58158000       0.91311000       4.66531000
C        2.21504709      -3.83657365       0.00000000       0.69093000       0.33918000       1.62567000       0.33918000       0.29927000       0.93856000       1.58158000       0.91311000       4.66531000
N        4.89958746      -1.33703851       3.86253123      -1.37248000      -0.45133000       0.00421000      -0.40130000      -1.30337000       1.24508000      -0.09137000       1.23518000      -4.20409000
N        4.89958746       2.26257589       8.86510724      -1.37248000      -0.45133000       0.00421000      -0.40130000      -1.30337000       1.24508000      -0.09137000       1.23518000      -4.20409000
N        1.78222646       0.46277409      13.86766824      -1.37248000      -0.45133000       0.00421000      -0.40130000      -1.30337000       1.24508000      -0.09137000       1.23518000      -4.20409000
N        2.62701882       3.57464745      11.14516677      -0.95132000      -0.15818000      -1.07585000      -0.20813000      -1.72435000      -0.62585000      -1.11545000      -0.53846000      -4.20403000
N        2.62701882      -3.62459215       1.14002976      -0.95132000      -0.15818000      -1.07585000      -0.20813000      -1.72435000      -0.62585000      -1.11545000      -0.53846000      -4.20403000
N        2.62701882      -0.02496695       6.14259076      -0.95132000      -0.15818000      -1.07585000      -0.20813000      -1.72435000      -0.62585000      -1.11545000      -0.53846000      -4.20403000
N        4.89958746       1.33703851      11.14516677      -1.37248000       0.45133000      -0.00421000       0.40129000      -1.30321000       1.24480000       0.09140000       1.23524000      -4.20403000
N        1.78222646      -0.46277409       1.14002976      -1.37248000       0.45133000      -0.00421000       0.40129000      -1.30321000       1.24480000       0.09140000       1.23524000      -4.20403000
N        4.89958746      -2.26257589       6.14259076      -1.37248000       0.45133000      -0.00421000       0.40129000      -1.30321000       1.24480000       0.09140000       1.23524000      -4.20403000
N        2.62701882      -3.57464745       3.86253123      -0.95132000       0.15818000       1.07585000       0.20826000      -1.72436000      -0.62617000       1.11539000      -0.53846000      -4.20409000
N        2.62701882       0.02496695       8.86510724      -0.95132000       0.15818000       1.07585000       0.20826000      -1.72436000      -0.62617000       1.11539000      -0.53846000      -4.20409000
N        2.62701882       3.62459215      13.86766824      -0.95132000       0.15818000       1.07585000       0.20826000      -1.72436000      -0.62617000       1.11539000      -0.53846000      -4.20409000
N        1.82547672       0.48774104      11.14516677      -1.68975000      -0.21812000       1.08008000      -0.26812000      -0.98600000      -0.61891000       1.02405000      -0.69678000      -4.20403000
N        4.94283772      -1.31207156       1.14002976      -1.68975000      -0.21812000       1.08008000      -0.26812000      -0.98600000      -0.61891000       1.02405000      -0.69678000      -4.20403000
N        1.82547672      -3.11187336       6.14259076      -1.68975000      -0.21812000       1.08008000      -0.26812000      -0.98600000      -0.61891000       1.02405000      -0.69678000      -4.20403000
N        1.82547672      -0.48774104       3.86253123      -1.68975000       0.21812000      -1.08008000       0.26807000      -0.98601000      -0.61893000      -1.02401000      -0.69672000      -4.20409000
N        1.82547672       3.11187336       8.86510724      -1.68975000       0.21812000      -1.08008000       0.26807000      -0.98601000      -0.61893000      -1.02401000      -0.69672000      -4.20409000
N        4.94283772       1.31207156      13.86766824      -1.68975000       0.21812000      -1.08008000       0.26807000      -0.98601000      -0.61893000      -1.02401000      -0.69672000      -4.20409000
48
Lattice="10.800241 0.0 0.0 -5.40012 9.353283 0.0 0.0 0.0 15.980176" Properties=species:S:1:pos:R:3:REF_becs:R:9 REF_electric_field="0.0 0.0 0.0" REF_polarisability="0.10903124235683465 0.0 -0.0 0.0 0.10903124235683465 -0.0 0.0 -0.0 0.10480655396993184" REF_piezoelectric="-0.0 0.0 0.0 -0.01879 -0.00262 0.0 -0.01879 0.01879 -0.0 0.0 0.0 0.00262 -0.0 -0.0 0.0 0.0 0.0 -0.0" REF_dielectric_ionic="1.366483 -0.001124 0.001707 -0.001124 1.366916 0.0 0.001707 0.0 1.649347" config_energy_weight=0.0 config_forces_weight=0.0 config_stress_weight=0.0 pbc="T T T"
Ho       8.02664756       4.63418695       0.00000000       3.25214000       0.11925000      -0.21415000       0.12050000       3.10958000       0.36606000      -0.27336000       0.47351000       3.13690000
Ho       5.40012050       0.08490910      10.65345599       3.03699000       0.00266000       0.42147000       0.00000000       3.31792000      -0.00000000       0.54675000      -0.00002000       3.13690000
Ho       2.77359394       4.63418695       5.32672001       3.24714000      -0.12332000      -0.20819000      -0.12050000       3.10958000      -0.36606000      -0.27339000      -0.47349000       3.13690000
Al       6.44777101       2.51289978      13.31680801       1.82645000       0.37139000       0.38062000       0.37223000       2.25753000       0.66485000       0.43477000       0.75304000       2.51034000
Al      -2.72665006       7.13657364       9.63590231       2.40675000       0.33935000       0.31147000       0.33190000       2.41095000       0.09804000       0.34253000       0.03876000       1.79518000
Al       0.58299179       3.42364765      14.96262231       2.71238000      -0.16687000      -0.24550000      -0.17574000       2.11905000       0.22254000      -0.20484000       0.27726000       1.79518000
Al       2.14365927       8.14634471       4.30916632       2.11966000      -0.17191000      -0.06780000      -0.17450000       2.70457000      -0.32060000      -0.13769000      -0.31602000       1.79518000
Al       5.40012613       4.32747409       2.66336799       2.47191000       0.00004000      -0.76793000       0.00000000       1.61252000      -0.00000000      -0.86953000      -0.00000000       2.51034000
Al       4.35248106       2.51289978       7.99008800       1.82767000      -0.37283000       0.38542000      -0.37223000       2.25753000      -0.66485000       0.43477000      -0.75304000       2.51034000
Al      -0.58299143       3.42364765       6.34427369       2.69849000       0.15995000      -0.23764000       0.17574000       2.11905000      -0.22254000      -0.20482000      -0.27727000       1.79518000
Al       2.72665082       7.13657364      11.67100968       2.40726000      -0.34193000       0.31094000      -0.33190000       2.41095000      -0.09804000       0.34253000      -0.03875000       1.79518000
Al      -2.14365840       8.14634471       1.01755369       2.11642000       0.15426000      -0.07551000       0.17450000       2.70457000       0.32060000      -0.13771000       0.31601000       1.79518000
Cl      -4.45289034       7.86290283       8.68712730      -1.09736000       0.13609000      -0.32147000       0.06790000      -0.55528000       0.04309000      -0.34782000       0.10055000      -0.58066000
Cl       3.63579903       9.27814808       3.36040729      -0.78071000      -0.25204000       0.19742000      -0.32355000      -0.87365000       0.25833000       0.26098000       0.25095000      -0.58066000
Cl       0.81709232       1.56551510      14.01386328      -0.60189000       0.22712000       0.12738000       0.15228000      -1.05605000      -0.30163000       0.08683000      -0.35149000      -0.58066000
Cl       5.34113528       5.52170127       4.47064600      -0.93163000      -0.07413000       0.43119000      -0.03776000      -0.47272000      -0.22026000       0.45196000      -0.23800000      -1.05013000
Cl       3.34774000       1.86470791       9.79738198      -0.63603000       0.20898000      -0.02510000       0.24517000      -0.76892000       0.48372000      -0.01987000       0.51041000      -1.05013000
Cl       7.51148672       1.96687382      15.12410199      -0.53882000      -0.18995000      -0.40568000      -0.15303000      -0.86623000      -0.26347000      -0.43209000      -0.27241000      -1.05013000
Cl       3.28875449       1.96687382       6.18279402      -0.53943000       0.18870000      -0.40731000       0.15303000      -0.86623000       0.26347000      -0.43212000       0.27245000      -1.05022000
Cl       5.45910631       5.52170127       0.85607401      -0.93224000       0.07435000       0.43200000       0.03776000      -0.47272000       0.22026000       0.45201000       0.23800000      -1.05022000
Cl       7.45250120       1.86470791      11.50953000      -0.63617000      -0.20911000      -0.02471000      -0.24517000      -0.76892000      -0.48372000      -0.01989000      -0.51046000      -1.05022000
Cl       0.57941690       3.23630139       4.44928050      -1.25119000      -0.30133000       0.25167000      -0.30901000      -0.50743000      -0.03875000       0.23601000      -0.04052000      -0.84612000
Cl       2.30769333       8.23692191       9.77600051      -0.95644000       0.47791000      -0.09239000       0.47207000      -0.80235000       0.23853000      -0.08292000       0.22465000      -0.84612000
Cl      -2.88710924       7.23334270      15.10273650      -0.42907000      -0.16461000      -0.15912000      -0.17375000      -1.33090000      -0.19957000      -0.15309000      -0.18413000      -0.84612000
Cl       2.88711001       7.23334270       6.20417549      -0.43023000       0.16924000      -0.16227000       0.17375000      -1.33090000       0.19957000      -0.15298000       0.18410000      -0.84610000
Cl      -0.57941656       3.23630139       0.87743950      -1.25566000       0.30293000       0.25521000       0.30901000      -0.50743000       0.03875000       0.23592000       0.04044000      -0.84610000
Cl      -2.30769245       8.23692191      11.53089550      -0.95752000      -0.47823000      -0.09206000      -0.47207000      -0.80235000      -0.23853000      -0.08294000      -0.22453000      -0.84610000
Cl       1.86881463       6.18092065       3.27646343      -0.46540000       0.16047000      -0.17955000       0.14239000      -1.37621000       0.11503000      -0.13837000       0.09713000      -0.76327000
Cl      -0.88712057       7.88126332       8.60319941      -1.01696000      -0.46124000      -0.01033000      -0.47699000      -0.82246000      -0.21265000      -0.01493000      -0.16840000      -0.76327000
Cl      -0.98169306       4.64438203      13.92991942      -1.28075000       0.32830000       0.19011000       0.31250000      -0.56329000       0.09768000       0.15330000       0.07127000      -0.76327000
Cl       0.98169355       4.64438203       7.37697659      -1.27592000      -0.32644000       0.18765000      -0.31250000      -0.56329000      -0.09768000       0.15327000      -0.07126000      -0.76331000
Cl      -1.86881397       6.18092065       2.05025658      -0.46506000      -0.15454000      -0.17857000      -0.14239000      -1.37621000      -0.11503000      -0.13835000      -0.09711000      -0.76331000
Cl       0.88712142       7.88126332      12.70371257      -1.01729000       0.46025000      -0.00925000       0.47699000      -0.82246000       0.21265000      -0.01492000       0.16837000      -0.76331000
Cl       4.46370745       4.64895578       7.70333972      -0.52821000       0.15934000      -0.31418000       0.12382000      -1.04131000       0.31037000      -0.32165000       0.39302000      -0.86924000
Cl       4.54227364       1.54120591      13.03007571      -0.78990000      -0.27531000      -0.11220000      -0.31045000      -0.77863000      -0.42665000      -0.17954000      -0.47507000      -0.86924000
Cl       7.19438091       3.16312130       2.37661972      -1.03558000       0.16875000       0.42639000       0.13402000      -0.53369000       0.11613000       0.50119000       0.08205000      -0.86924000
Cl       3.60586043       3.16312130       2.95010029      -1.03481000      -0.16898000       0.42522000      -0.13402000      -0.53369000      -0.11613000       0.50125000      -0.08200000      -0.86924000
Cl       6.33653404       4.64895578      13.60355628      -0.52805000      -0.15767000      -0.31300000      -0.12382000      -1.04131000      -0.31037000      -0.32164000      -0.39309000      -0.86924000
Cl       6.25796752       1.54120591       8.27683628      -0.79092000       0.27519000      -0.11258000       0.31045000      -0.77863000       0.42665000      -0.17961000       0.47509000      -0.86924000
Cl      -2.30868627       4.58676580       6.01636048      -1.15583000       0.35816000      -0.09414000       0.25174000      -0.65285000       0.04619000      -0.05910000       0.05774000      -0.50928000
Cl       2.58220829       5.06051894      11.34308049      -0.51229000       0.11849000       0.00683000       0.01370000      -1.29921000      -0.10450000      -0.02046000      -0.08005000      -0.50928000
Cl      -0.27352102       9.05928126       0.68962450      -1.04379000      -0.31734000       0.08771000      -0.42546000      -0.76571000       0.05832000       0.07955000       0.02231000      -0.50928000
Cl       0.27352199       9.05928126       4.63709551      -1.04974000       0.32200000       0.08674000       0.42545000      -0.76571000      -0.05832000       0.07957000      -0.02232000      -0.50930000
Cl       2.30868676       4.58676580      15.29055150      -1.16257000      -0.36062000      -0.09428000      -0.25174000      -0.65285000      -0.04619000      -0.05911000      -0.05776000      -0.50930000
Cl      -2.58220775       5.06051894       9.96381552      -0.51337000      -0.11865000       0.00696000      -0.01370000      -1.29921000       0.10450000      -0.02046000       0.08007000      -0.50930000
Cl      -0.81709215       1.56551510       7.29304870      -0.59937000      -0.21833000       0.12222000      -0.15228000      -1.05605000       0.30163000       0.08683000       0.35151000      -0.58072000
Cl       4.45289118       7.86290283      12.61976871      -1.09753000      -0.13640000      -0.32193000      -0.06790000      -0.55528000      -0.04309000      -0.34783000      -0.10055000      -0.58072000
Cl      -3.63579803       9.27814808       1.96631272      -0.78552000       0.25862000       0.20225000       0.32355000      -0.87365000      -0.25833000       0.26100000      -0.25095000      -0.58072000
6
Lattice="3.969721 0.0 0.0 0.0 3.969721 0.0 0.0 0.0 6.748129" Properties=species:S:1:pos:R:3:REF_becs:R:9 REF_electric_field="0.0 0.0 0.0" REF_polarisability="0.2918105881589901 0.0 0.0 0.0 0.2918105881589901 0.0 0.0 0.0 0.26387889564636247" REF_piezoelectric="0.0 0.0 0.0 0.0 0.0 0.0 0.0 0.0 0.0 0.0 0.0 0.0 0.0 0.0 0.0 0.0 0.0 0.0" REF_dielectric_ionic="17.559 -0.0 0.0 -0.0 17.559 0.0 0.0 0.0 7.945" config_energy_weight=0.0 config_forces_weight=0.0 config_stress_weight=0.0 pbc="T T T"
Gd       2.97729075       2.97729075       5.59654054       4.22082000       0.00000000      -0.00038000      -0.00000000       4.22077000      -0.00038000       0.00000000       0.00000000       3.51164000
Gd       0.99243025       0.99243025       1.15158846       4.22082000       0.00000000       0.00038000      -0.00000000       4.22077000       0.00038000       0.00000000       0.00000000       3.51377000
Cl       0.99243025       0.99243025       4.23433623      -1.38730000       0.00000000       0.00046000      -0.00000000      -1.38737000       0.00045000      -0.00000000      -0.00000000      -1.48921000
Cl       2.97729075       2.97729075       2.51379277      -1.38730000       0.00000000      -0.00046000      -0.00000000      -1.38737000      -0.00045000       0.00000000       0.00000000      -1.49002000
O        2.97729075       0.99243025       0.00000000      -2.91214000      -0.00000000       0.00793000       0.00000000      -2.91203000      -0.00774000       0.00000000       0.00000000      -2.06680000
O        0.99243025       2.97729075       0.00000000      -2.91214000       0.00000000      -0.00793000       0.00000000      -2.91203000       0.00774000       0.00000000      -0.00000000      -2.06680000
3
Lattice="3.283071 0.0 1.895482 1.094357 3.095309 1.895482 0.0 0.0 3.790964" Properties=species:S:1:pos:R:3:REF_becs:R:9 REF_electric_field="0.0 0.0 0.0" REF_polarisability="0.5542570893175255 0.0 0.0 0.0 0.5542570893175255 0.0 0.0 0.0 0.5542570893175255" REF_piezoelectric="0.0 0.0 0.0 0.0 0.0 0.0 0.0 0.0 0.0 0.0 0.0 0.0 0.0 0.0 0.0 0.0 0.0 0.0" REF_dielectric_ionic="18.946 -0.001 0.0 -0.001 18.93 0.0 0.0 0.0 18.928" config_energy_weight=0.0 config_forces_weight=0.0 config_stress_weight=0.0 pbc="T T T"
Ce       0.00000000       0.00000000       0.00000000       5.78237000      -0.00007000       0.00000000       0.00000000       5.77901000       0.00000000       0.00000000       0.00000000       5.77884000
O        3.28307100       2.32148175       5.68644600      -2.92756000       0.01429000       0.00000000       0.00000000      -2.95087000       0.00000000       0.00462000       0.00327000      -2.89346000
O        1.09435700       0.77382725       1.89548200      -2.86010000      -0.01423000       0.00000000       0.00000000      -2.83533000       0.00000000      -0.00462000      -0.00327000      -2.89346000
12
Lattice="5.412887 0.0 0.0 0.0 4.915284 0.0 0.0 0.0 7.232385" Properties=species:S:1:pos:R:3:REF_becs:R:9 REF_electric_field="0.0 0.0 0.0" REF_polarisability="0.0734500062369097 0.0 0.0 0.0 0.08626197915580729 0.0 0.0 0.0 0.05116831420404435" REF_piezoelectric="0.0 0.0 0.0 0.0 0.0 0.0 0.0 0.0 0.0 0.0 0.0 0.0 0.0 0.0 0.0 0.0 0.0 0.0" REF_dielectric_ionic="0.267 0.0 0.0 0.0 0.192 0.0 0.0 0.0 0.122" config_energy_weight=0.0 config_forces_weight=0.0 config_stress_weight=0.0 pbc="T T T"
C        1.35322175       2.45764200       6.21979324       1.45896000      -0.89983000      -0.00003000      -0.94662000       2.02225000       0.00002000       0.00000000       0.00000000       0.61689000
C        1.35322175       0.00000000       2.60360074       1.45896000       0.89983000      -0.00003000       0.94662000       2.02225000       0.00002000       0.00000000       0.00000000       0.61689000
C        4.05966525       0.00000000       4.62878426       1.45896000       0.89983000       0.00003000       0.94662000       2.02225000      -0.00002000       0.00000000       0.00000000       0.61693000
C        4.05966525       2.45764200       1.01259176       1.45896000      -0.89983000       0.00003000      -0.94662000       2.02225000      -0.00002000       0.00000000       0.00000000       0.61693000
O        4.74146167       1.50032163       1.00642977      -0.73046000       0.51096000       0.02352000       0.52304000      -1.01209000       0.02349000       0.02269000       0.01589000      -0.30859000
O        3.37786883       3.41496237       1.00642977      -0.72968000       0.51056000      -0.02356000       0.52408000      -1.01233000      -0.02335000      -0.02269000      -0.01589000      -0.30859000
O        4.74146167       0.95732037       4.62262227      -0.73046000      -0.51096000       0.02352000      -0.52408000      -1.01233000      -0.02335000       0.02269000      -0.01589000      -0.30859000
O        0.67142533       3.95796363       2.60976273      -0.72968000      -0.51056000       0.02356000      -0.52304000      -1.01209000      -0.02349000       0.02270000      -0.01592000      -0.30860000
O        3.37786883       3.95796363       4.62262227      -0.72968000      -0.51056000      -0.02356000      -0.52304000      -1.01209000       0.02349000      -0.02269000       0.01589000      -0.30859000
O        2.03501817       0.95732037       2.60976273      -0.73046000      -0.51096000      -0.02352000      -0.52408000      -1.01233000       0.02335000      -0.02270000       0.01592000      -0.30860000
O        2.03501817       1.50032163       6.22595523      -0.73046000       0.51096000      -0.02352000       0.52304000      -1.01209000      -0.02349000      -0.02270000      -0.01592000      -0.30860000
O        0.67142533       3.41496237       6.22595523      -0.72968000       0.51056000       0.02356000       0.52408000      -1.01233000       0.02335000       0.02270000       0.01592000      -0.30860000
6
Lattice="4.238444 0.0 0.0 0.0 4.238444 0.0 0.0 0.0 4.999468" Properties=species:S:1:pos:R:3:REF_becs:R:9 REF_electric_field="0.0 0.0 0.0" REF_polarisability="0.0869781763997208 0.0 0.0 0.0 0.0869781763997208 0.0 0.0 0.0 0.05650000479762284" REF_piezoelectric="0.0 0.0 0.0 0.0 0.0 0.0 0.0 0.0 0.0 0.0 0.0 0.0 0.0 0.0 0.0 0.0 0.0 0.0" REF_dielectric_ionic="0.231 -0.0 0.0 -0.0 0.231 0.0 0.0 0.0 0.13" config_energy_weight=0.0 config_forces_weight=0.0 config_stress_weight=0.0 pbc="T T T"
C        2.11922200       2.11922200       2.49973400       1.80303000      -1.08788000       0.00000000      -1.08788000       1.80303000       0.00000000       0.00000000       0.00000000       0.63921000
C        0.00000000       0.00000000       0.00000000       1.80303000       1.08788000       0.00000000       1.08788000       1.80303000       0.00000000       0.00000000       0.00000000       0.63921000
O        1.28833863       2.95010537       2.49973400      -0.90230000       0.59748000       0.00000000       0.59704000      -0.90253000       0.00000000      -0.00004000       0.00004000      -0.31958000
O        2.95010537       1.28833863       2.49973400      -0.90253000       0.59704000       0.00000000       0.59748000      -0.90230000       0.00000000       0.00004000      -0.00004000      -0.31958000
O        0.83088337       0.83088337       0.00000000      -0.90253000      -0.59704000       0.00000000      -0.59704000      -0.90253000       0.00000000       0.00004000       0.00004000      -0.31958000
O        3.40756063       3.40756063       0.00000000      -0.90230000      -0.59748000       0.00000000      -0.59748000      -0.90230000       0.00000000      -0.00004000      -0.00004000      -0.31958000
12
Lattice="5.082409 0.0 0.0 0.0 5.082409 0.0 0.0 0.0 7.36112" Properties=species:S:1:pos:R:3:REF_becs:R:9 REF_electric_field="0.0 0.0 0.0" REF_polarisability="0.08021409131831525 -0.0 0.0 -0.0 0.08021409131831525 0.0 0.0 0.0 0.052123243862595724" REF_piezoelectric="0.0 -0.0 0.0 0.0 1e-05 0.0 0.0 0.0 0.0 0.0 0.0 1e-05 -0.0 -0.0 -0.0 4e-05 0.0 0.0" REF_dielectric_ionic="0.278 -0.0 -0.0 -0.0 0.278 -0.0 -0.0 -0.0 0.11" config_energy_weight=0.0 config_forces_weight=0.0 config_stress_weight=0.0 pbc="T T T"
C        2.53689970       2.53689970       0.00000000       1.71200000      -0.87407000       0.00396000      -0.87407000       1.71200000      -0.00396000       0.00312000      -0.00329000       0.60235000
C        0.00430480       5.07810420       1.84028000       1.71057000       0.87253000       0.00395000       0.87407000       1.71200000       0.00396000       0.00329000       0.00312000       0.60235000
C        5.07810420       0.00430480       5.52084000       1.71200000       0.87407000      -0.00396000       0.87253000       1.71057000      -0.00395000      -0.00329000      -0.00312000       0.60235000
C        2.54550930       2.54550930       3.68056000       1.71057000      -0.87253000      -0.00395000      -0.87253000       1.71057000       0.00395000      -0.00312000       0.00329000       0.60235000
O        0.83504488       0.82616083       1.84315820      -0.85549000      -0.53733000      -0.00142000      -0.53883000      -0.85714000      -0.00141000      -0.00126000      -0.00125000      -0.30135000
O        1.71504367       3.37624938       3.68343820      -0.85636000       0.53751000       0.00136000       0.53733000      -0.85549000      -0.00142000       0.00125000      -0.00126000      -0.30135000
O        3.36736533       1.70615962       0.00287820      -0.85713000       0.53883000      -0.00141000       0.53759000      -0.85600000       0.00137000      -0.00125000       0.00126000      -0.30135000
O        3.37624938       1.71504367       3.67768180      -0.85549000       0.53733000       0.00142000       0.53751000      -0.85636000      -0.00136000       0.00124000      -0.00124000      -0.30144000
O        1.70615962       3.36736533       7.35824180      -0.85600000       0.53759000      -0.00137000       0.53883000      -0.85714000       0.00141000      -0.00124000       0.00124000      -0.30144000
O        4.24736412       4.25624817       5.52371820      -0.85600000      -0.53759000       0.00137000      -0.53751000      -0.85636000       0.00136000       0.00126000       0.00125000      -0.30135000