8
Lattice="4.440909 -0.009388 3.150602 1.622701 4.133836 3.150602 -0.013802 -0.009388 5.444977" Properties=species:S:1:pos:R:3:REF_becs:R:9 REF_electric_field="0.0 0.0 0.0" REF_polarisability="0.5944437124482291 0.009708451528605616 0.027852115041081683 0.009788029000151563 0.58696343012291 0.018859860756389596 0.027852115041081683 0.018939438227935545 0.634152870749657" REF_piezoelectric="0.00354 -0.00034 -0.00285 -0.00909 0.0119 -0.00263 -0.01847 0.02074 -0.0024 -0.00464 -0.01346 0.01544 0.00402 -0.0022 -0.00307 0.0067 -0.00507 0.002" REF_dielectric_ionic="1.041 0.024 0.068 0.024 1.023 0.046 0.068 0.046 1.138" config_energy_weight=0.0 config_forces_weight=0.0 config_stress_weight=0.0 pbc="T T T"
Rh       3.02490400       2.05753000       5.87309050       2.37652000      -0.75939000       0.38559000       0.83665000       2.34432000      -0.34066000      -0.17528000       0.47856000       2.52204000
Rh       0.00000000       0.00000000       0.00000000       2.37625000       0.83299000      -0.17592000      -0.76418000       2.34795000       0.48458000       0.38352000      -0.33699000       2.53031000
F        3.03533121       3.09568300       4.14537720      -0.46438000       0.38576000      -0.48160000       0.40705000      -0.79405000       0.77410000      -0.48672000       0.76526000      -1.16503000
F        3.47151606       0.36229455       4.87831530      -0.47768000       0.39807000       0.55009000       0.40853000      -0.78332000      -0.75462000       0.52115000      -0.73628000      -1.16239000
F        4.99439527       2.42921255       6.08714725      -1.43485000      -0.82834000      -0.15601000      -0.85141000      -0.78461000      -0.10483000      -0.14221000      -0.09186000      -0.20500000
F        2.57829194       3.75276545       6.86786570      -0.47889000       0.41687000       0.53937000       0.38618000      -0.77065000      -0.73167000       0.53004000      -0.73215000      -1.16373000
F        3.01447679       1.01937700       7.60080380      -0.46038000       0.39506000      -0.50033000       0.39636000      -0.79349000       0.78428000      -0.49458000       0.75145000      -1.15994000
F        1.05541273       1.68584745       5.65903375      -1.44069000      -0.84141000      -0.16202000      -0.81959000      -0.77002000      -0.11173000      -0.13685000      -0.09859000      -0.20146000
14
Lattice="4.347942 0.0 0.0 0.0 4.890848 0.0 0.0 0.0 9.641147" Properties=species:S:1:pos:R:3:REF_becs:R:9 REF_electric_field="0.0 0.0 0.0" REF_polarisability="0.19957297750985453 0.0 0.0 0.0 0.2350385875636232 0.0 0.0 0.0 0.1358557735078435" REF_piezoelectric="0.49685 -0.37915 0.01916 0.0 0.0 0.0 0.0 0.0 0.0 -0.28878 0.0 0.0 0.0 0.0 0.0 0.0 0.0 -0.01881" REF_dielectric_ionic="5.498077 -0.000716 -8.9e-05 -0.000716 5.470005 0.0 -8.9e-05 0.0 0.432493" config_energy_weight=0.0 config_forces_weight=0.0 config_stress_weight=0.0 pbc="T T T"
U        4.32152825       0.00000000       0.00000000       4.93923000       0.00000000       0.00000000      -0.00039000       5.38405000       0.00000000      -0.00005000       0.00000000       4.57661000
U        2.14755725       2.44542400       4.82057350       4.93923000       0.00000000       0.00000000      -0.00039000       5.38405000       0.00000000      -0.00005000       0.00000000       4.57661000
C        1.65590501       2.44542400       0.00000000       2.62299000       0.00000000       0.00000000      -0.00020000       4.28200000       0.00000000       0.00001000       0.00000000       0.71235000
C        3.82987601       0.00000000       4.82057350       2.62299000       0.00000000       0.00000000      -0.00020000       4.28200000       0.00000000       0.00001000       0.00000000       0.71235000
O        4.33385032       0.00000000       7.85207792      -0.56959000       0.00000000      -0.04841000      -0.00004000      -0.60027000       0.00025000      -0.00687000       0.00000000      -2.09470000
O        0.35013542       2.44542400       0.00000000      -2.03865000       0.00000000       0.00000000       0.00025000      -2.80538000       0.00000000       0.00008000       0.00000000      -0.32704000
O        4.33385032       0.00000000       1.78906908      -0.56959000       0.00000000       0.04841000      -0.00004000      -0.60027000      -0.00025000       0.00679000       0.00000000      -2.09588000
O        2.21849393       1.29212781       0.00000000      -2.19185000       0.76405000       0.00000000       0.79825000      -2.82994000       0.00000000       0.00001000       0.00004000      -0.38630000
O        2.21849393       3.59872019       0.00000000      -2.19185000      -0.76405000       0.00000000      -0.79722000      -2.82950000       0.00000000       0.00001000      -0.00004000      -0.38630000
O        2.15987932       2.44542400       3.03150442      -0.56959000       0.00000000      -0.04841000      -0.00004000      -0.60027000       0.00025000      -0.00687000       0.00000000      -2.09470000
O        2.52410642       0.00000000       4.82057350      -2.03865000       0.00000000       0.00000000       0.00025000      -2.80538000       0.00000000       0.00008000       0.00000000      -0.32704000
O        2.15987932       2.44542400       6.60964258      -0.56959000       0.00000000       0.04841000      -0.00004000      -0.60027000      -0.00025000       0.00679000       0.00000000      -2.09588000
O        0.04452293       3.73755181       4.82057350      -2.19185000       0.76405000       0.00000000       0.79825000      -2.82994000       0.00000000       0.00001000       0.00004000      -0.38630000
O        0.04452293       1.15329619       4.82057350      -2.19185000      -0.76405000       0.00000000      -0.79722000      -2.82950000       0.00000000       0.00001000      -0.00004000      -0.38630000
24
Lattice="7.492847 -0.038897 0.0 -0.038897 7.492949 0.0 0.0 0.0 5.357001" Properties=species:S:1:pos:R:3:REF_becs:R:9 REF_electric_field="0.0 0.0 0.0" REF_polarisability="0.4528352039448575 0.00630325194368297 0.0 0.006303888563455336 0.45284340042442667 0.0 0.0 0.0 0.4409634388522753" REF_piezoelectric="0.0 0.0 0.0 0.0 0.01588 0.02716 0.0 0.0 0.0 0.0 -0.02729 -0.01589 -0.05087 0.05138 2e-05 -0.00019 0.0 0.0" REF_dielectric_ionic="53.204387 20.082202 1.1e-05 20.082202 53.356516 1.8e-05 1.1e-05 1.8e-05 26.101001" config_energy_weight=0.0 config_forces_weight=0.0 config_stress_weight=0.0 pbc="T T T"
Ce       0.01282356       7.44121283       5.35694743       5.47161000      -0.28087000      -0.08093000      -0.28091000       5.47152000      -0.08103000      -0.04777000      -0.04792000       5.75304000
Ce       5.60991100       1.84406450       2.67855943       5.51568000      -0.27021000      -0.00001000      -0.27019000       5.51538000       0.00002000       0.00000000      -0.00000000       5.76163000
Ce       3.67525444       3.77876217       5.35694743       5.47159000      -0.28085000       0.08093000      -0.28094000       5.47154000       0.08098000       0.04777000       0.04792000       5.75304000
Zr       1.86348750       1.86351300       2.67904156       6.04199000       0.68423000       0.00002000       0.56477000       5.76583000       0.00005000       0.00000000      -0.00000000       5.23021000
Zr       7.45237867       3.68649713       0.00006964       5.87541000       0.53013000      -0.16557000       0.53006000       5.87516000       0.16563000       0.07641000      -0.07633000       5.13085000
Zr       1.84403900       5.60998750       2.67851121       5.74766000      -0.48765000      -0.00004000      -0.48788000       5.74751000       0.00008000       0.00000000      -0.00000000       5.81126000
Zr       3.76744333       0.00163187       0.00006964       5.87537000       0.53010000       0.16558000       0.53009000       5.87517000      -0.16571000      -0.07641000       0.07633000       5.13085000
Zr       5.59046250       5.59053900       2.67788444       5.76614000       0.56483000      -0.00004000       0.68459000       6.04217000       0.00005000       0.00000000      -0.00000000       5.22995000
O        1.73316130       0.06348762       1.64928133      -2.18178000      -0.14473000      -0.45172000      -0.06631000      -3.55625000      -0.34860000      -0.51143000      -0.33190000      -2.69962000
O        7.43963920       1.97939329       1.18997206      -2.34738000      -0.00042000       0.36302000      -0.00678000      -3.21970000       0.42080000       0.40222000       0.41864000      -2.78858000
O        0.14209461       1.79041104       3.87643842      -3.37265000      -0.04201000       0.26559000      -0.01187000      -2.29282000       0.36427000       0.27175000       0.35126000      -2.83766000
O        1.99567211       7.29063273       4.23229328      -3.76426000      -0.12364000      -0.27961000      -0.09922000      -2.14747000      -0.38110000      -0.22149000      -0.32044000      -2.62448000
O        1.99381370       3.66353838       1.64927597      -2.18181000      -0.14467000       0.45172000      -0.06633000      -3.55623000       0.34863000       0.51143000       0.33190000      -2.69962000
O        0.16334888       5.45841999       1.12468629      -2.14742000      -0.09902000      -0.38085000      -0.12359000      -3.76437000      -0.27938000      -0.32037000      -0.22116000      -2.62439000
O        7.39044015       5.72100958       3.70763932      -3.55649000      -0.06639000      -0.34868000      -0.14468000      -2.18169000      -0.45212000      -0.33179000      -0.51209000      -2.69973000
O        1.69240589       3.92934227       4.23229328      -3.76432000      -0.12366000       0.27961000      -0.09921000      -2.14744000       0.38104000       0.22149000       0.32044000      -2.62448000
O        5.66349572       7.31199315       1.48059472      -2.29281000      -0.01185000       0.36416000      -0.04204000      -3.37261000       0.26568000       0.35079000       0.27187000      -2.83743000
O        3.78018280       1.70873571       1.18997206      -2.34739000      -0.00041000      -0.36299000      -0.00678000      -3.21971000      -0.42083000      -0.40222000      -0.41864000      -2.78858000
O        3.58488039       1.93661496       3.87643842      -3.37265000      -0.04202000      -0.26561000      -0.01184000      -2.29283000      -0.36431000      -0.27175000      -0.35126000      -2.83766000
O        5.47449407       0.01434931       4.16708787      -3.21993000      -0.00679000       0.42086000      -0.00034000      -2.34730000       0.36320000       0.41895000       0.40222000      -2.78852000
O        5.51742928       3.86908485       1.48059472      -2.29277000      -0.01189000      -0.36415000      -0.04204000      -3.37256000      -0.26562000      -0.35079000      -0.27187000      -2.83743000
O        3.52472912       5.76155501       1.12468629      -2.14741000      -0.09906000       0.38089000      -0.12354000      -3.76431000       0.27936000       0.32037000       0.22116000      -2.62439000
O        3.79048485       5.46006842       3.70763932      -3.55648000      -0.06638000       0.34867000      -0.14470000      -2.18170000       0.45211000       0.33179000       0.51209000      -2.69973000
O        5.74532793       3.67377969       4.16708787      -3.21993000      -0.00679000      -0.42086000      -0.00032000      -2.34730000      -0.36321000      -0.41895000      -0.40222000      -2.78852000
14
Lattice="7.292171 0.004065 0.0 -2.426891 6.876481 0.0 -2.43264 -3.440273 5.951686" Properties=species:S:1:pos:R:3:REF_becs:R:9 REF_electric_field="0.0 0.0 0.0" REF_polarisability="0.563728081671038 -0.0020947973609755266 -3.93908484152441e-05 -0.00209551355821944 0.5622460308409662 -5.570423008216337e-05 -3.5650707252584554e-05 -5.0292962017038925e-05 0.5650092789629277" REF_piezoelectric="0.18366 -0.10071 -0.08294 0.00624 -0.00011 8e-05 -0.01254 0.12982 -0.11728 -0.08744 0.0 -0.00011 -1e-05 -3e-05 -5e-05 -3e-05 -0.13614 -0.09628" REF_dielectric_ionic="14.696869 -0.151604 -0.000844 -0.151604 14.584003 -0.000685 -0.000844 -0.000685 14.80115" config_energy_weight=0.0 config_forces_weight=0.0 config_stress_weight=0.0 pbc="T T T"
Ca       3.03936275       1.72115275       1.48792150       2.62933000       0.18734000       0.05174000       0.18724000       2.76174000      -0.03656000      -0.05169000       0.03655000       2.49684000
Ca       4.25280825      -1.71708775       4.46376450       2.62936000       0.18726000      -0.05171000       0.18734000       2.76171000       0.03662000       0.05168000      -0.03657000       2.49686000
Gd      -3.05229572       2.15829943       5.18924526       4.24970000      -0.00737000      -0.32768000       0.03702000       3.75672000      -0.08606000      -0.30245000      -0.04988000       4.07157000
Gd      -0.59091528       2.99804507       2.21340226       3.80210000      -0.12124000       0.02813000      -0.16565000       4.20448000      -0.33774000       0.05374000      -0.30175000       4.07161000
Gd       0.62253022      -0.44019543       3.73828374       3.80205000      -0.12129000      -0.02837000      -0.16555000       4.20465000       0.33799000      -0.05373000       0.30161000       4.07156000
Gd       3.02642978       5.60060493       0.76244074       4.24984000      -0.00721000       0.32797000       0.03704000       3.75670000       0.08596000       0.30233000       0.04988000       4.07156000
S       -3.26463799       4.19683291       2.97853911      -2.47271000       0.14387000      -0.13681000       0.14849000      -3.00703000       0.37079000      -0.25226000       0.22288000      -2.53114000
S       -0.88951256       3.90101043       5.08859630      -2.46173000      -0.12579000      -0.09838000       0.06177000      -2.76049000       0.44044000      -0.09393000       0.43166000      -2.78874000
S        0.32392078       0.46276304       0.86308970      -2.46184000      -0.12569000       0.09838000       0.06170000      -2.76053000      -0.44045000       0.09395000      -0.43168000      -2.78891000
S        1.40181296       3.47735795       0.00269611      -3.03952000      -0.05187000       0.39526000      -0.05647000      -2.44025000      -0.00536000       0.29425000      -0.16351000      -2.53117000
S        1.54464352       2.17978634       3.83893270      -2.70716000      -0.02503000      -0.44800000      -0.21241000      -2.51522000      -0.05409000      -0.43829000      -0.05531000      -2.78891000
S        0.33120046       5.61804059       2.11275330      -2.70711000      -0.02497000       0.44800000      -0.21252000      -2.51510000       0.05406000       0.43822000       0.05532000      -2.78873000
S        2.61525603       0.03912432       5.94898989      -3.03955000      -0.05184000      -0.39530000      -0.05653000      -2.44034000       0.00530000      -0.29393000       0.16346000      -2.53123000
S       -2.05118520       0.75859242       2.97314689      -2.47278000       0.14383000       0.13676000       0.14854000      -3.00704000      -0.37091000       0.25210000      -0.22264000      -2.53118000
10
Lattice="5.356937 0.067769 0.0 -0.995516 5.941781 0.0 0.0 0.0 6.073565" Properties=species:S:1:pos:R:3:REF_becs:R:9 REF_electric_field="0.0 0.0 0.0" REF_polarisability="0.12775263831273428 0.0033901594428004628 0.0 0.003390079865328917 0.138985316731331 0.0 0.0 0.0 0.08184320131580387" REF_piezoelectric="0.0 0.0 0.0 0.0 0.0 0.0 0.0 0.0 0.0 0.0 0.0 0.0 0.0 0.0 0.0 0.0 0.0 0.0" REF_dielectric_ionic="1.095725 0.06736 0.0 0.06736 1.051021 -0.0 0.0 -0.0 0.899667" config_energy_weight=0.0 config_forces_weight=0.0 config_stress_weight=0.0 pbc="T T T"
Xe       2.18071050       3.00477500       3.03678250       3.70189000       0.16505000      -0.58481000       0.14439000       4.03654000       0.19038000      -0.75996000       0.06815000       2.18015000
Xe       0.00000000       0.00000000       0.00000000       3.70189000       0.16505000       0.58481000       0.14439000       4.03654000      -0.19038000       0.75996000      -0.06815000       2.18015000
F        0.58402040       3.93164886       3.89792899      -1.18021000       0.48812000       0.41924000       0.51284000      -0.64181000      -0.26903000       0.42598000      -0.25154000      -0.61307000
F        0.60117410       5.01490714       0.86114649      -1.18021000       0.48812000      -0.41924000       0.51284000      -0.64181000       0.26903000      -0.42598000       0.25154000      -0.61307000
F        0.94386048       1.80039656       0.20138119      -0.67074000      -0.57065000      -0.00433000      -0.58503000      -1.37646000      -0.18243000      -0.06961000      -0.16559000      -0.47701000
F        1.23685002       1.20437844       3.23816369      -0.67074000      -0.57065000       0.00433000      -0.58503000      -1.37646000       0.18243000       0.06961000       0.16559000      -0.47701000
F        3.41756052       4.20915344       5.87218381      -0.67074000      -0.57065000      -0.00433000      -0.58503000      -1.37646000      -0.18243000      -0.06961000      -0.16559000      -0.47701000
F        3.12457098       4.80517156       2.83540131      -0.67074000      -0.57065000       0.00433000      -0.58503000      -1.37646000       0.18243000       0.06961000       0.16559000      -0.47701000
F        3.76025226       0.99464293       5.21241851      -1.18021000       0.48812000      -0.41924000       0.51284000      -0.64181000       0.26903000      -0.42598000       0.25154000      -0.61307000
F        3.77739524       2.07790107       2.17563601      -1.18021000       0.48812000       0.41924000       0.51284000      -0.64181000      -0.26903000       0.42598000      -0.25154000      -0.61307000
16
Lattice="6.546233 -0.018829 0.0 -0.335617 6.924838 0.0 0.0 0.0 7.672576" Properties=species:S:1:pos:R:3:REF_becs:R:9 REF_electric_field="0.0 0.0 0.0" REF_polarisability="0.11589965350343692 0.0062835963082111205 0.0 0.0062835963082111205 0.11733005855447536 0.0 0.0 0.0 0.10428492364394815" REF_piezoelectric="0.0 0.0 0.0 0.0 0.0 0.0 0.0 0.0 0.0 0.0 0.0 0.0 0.0 0.0 0.0 0.0 0.0 0.0" REF_dielectric_ionic="1.055515 0.216686 0.0 0.216686 1.06956 -0.0 0.0 -0.0 0.818791" config_energy_weight=0.0 config_forces_weight=0.0 config_stress_weight=0.0 pbc="T T T"
Xe       3.27311650      -0.00941450       3.83628800       1.58291000       0.60746000       0.60989000       0.69683000       1.77236000       0.68775000       0.73976000       0.93130000       1.98142000
Xe       0.00000000       0.00000000       0.00000000       1.58291000       0.60746000      -0.60989000       0.69683000       1.77236000      -0.68775000      -0.73976000      -0.93130000       1.98142000
Xe      -0.16780850       3.46241900       3.83628800       3.77226000      -0.10538000       0.17215000      -0.27776000       3.58344000       0.38723000       0.79688000       0.76479000       2.44287000
Xe       3.10530800       3.45300450       0.00000000       3.77226000      -0.10538000      -0.17215000      -0.27776000       3.58344000      -0.38723000      -0.79688000      -0.76479000       2.44287000
F        5.15704254       5.71890186       1.34232484      -0.77882000      -0.36157000       0.32653000      -0.40321000      -0.90023000       0.39153000       0.42318000       0.48903000      -0.98890000
F        1.05357346       1.18710714       6.33025116      -0.77882000      -0.36157000       0.32653000      -0.40321000      -0.90023000       0.39153000       0.42318000       0.48903000      -0.98890000
F        3.40560522       1.61635900       0.83723917      -0.41339000       0.16388000      -0.17300000       0.15682000      -1.37411000       0.40941000      -0.09245000       0.50086000      -0.61337000
F        4.46623231       3.45445606       3.12121159      -1.48538000      -0.05334000      -0.40102000       0.03686000      -0.40356000       0.12402000      -0.52769000       0.05134000      -0.60988000
F        5.01750019       3.44213844       6.95749959      -1.48538000      -0.05334000       0.40102000       0.03686000      -0.40356000      -0.12402000       0.52769000      -0.05134000      -0.60988000
F        1.19311581       3.46387056       0.71507641      -1.48538000      -0.05334000       0.40102000       0.03686000      -0.40356000      -0.12402000       0.52769000      -0.05134000      -0.60988000
F        1.74438369       3.45155294       4.55136441      -1.48538000      -0.05334000      -0.40102000       0.03686000      -0.40356000       0.12402000      -0.52769000       0.05134000      -0.60988000
F        0.13248872       1.62577350       2.99904883      -0.41339000       0.16388000       0.17300000       0.15682000      -1.37411000      -0.40941000       0.09245000      -0.50086000      -0.61337000
F        4.32668996       1.17769264       5.17861284      -0.77882000      -0.36157000      -0.32653000      -0.40321000      -0.90023000      -0.39153000      -0.42318000      -0.48903000      -0.98890000
F        2.80501078       5.28965000       6.83533683      -0.41339000       0.16388000      -0.17300000       0.15682000      -1.37411000       0.40941000      -0.09245000       0.50086000      -0.61337000
F        1.88392604       5.72831636       2.49396316      -0.77882000      -0.36157000      -0.32653000      -0.40321000      -0.90023000      -0.39153000      -0.42318000      -0.48903000      -0.98890000
F        6.07812728       5.28023550       4.67352717      -0.41339000       0.16388000       0.17300000       0.15682000      -1.37411000      -0.40941000       0.09245000      -0.50086000      -0.61337000
3
Lattice="4.01346 0.0 -2.108212 -1.107413 3.857654 -2.108212 -0.020361 -0.027028 4.835609" Properties=species:S:1:pos:R:3:REF_becs:R:9 REF_electric_field="0.0 0.0 0.0" REF_polarisability="0.09515547779831082 0.02176857649633708 0.031218560397361456 0.02176857649633708 0.10765359716943121 0.04144132112456853 0.031218560397361456 0.04144132112456853 0.1381883483537983" REF_piezoelectric="0.0 0.0 0.0 0.0 0.0 0.0 0.0 0.0 0.0 0.0 0.0 0.0 0.0 0.0 0.0 0.0 0.0 0.0" REF_dielectric_ionic="0.768413 0.147438 0.211442 0.147438 0.853062 0.280681 0.211442 0.280681 1.059873" config_energy_weight=0.0 config_forces_weight=0.0 config_stress_weight=0.0 pbc="T T T"
Xe       0.00000000       0.00000000       0.00000000       1.39449000       0.56241000       0.80656000       0.56241000       1.71739000       1.07068000       0.80656000       1.07068000       2.50629000
F        2.06328903       2.73892874      -0.94643845      -0.69724000      -0.28121000      -0.40328000      -0.28121000      -0.85870000      -0.53534000      -0.40328000      -0.53534000      -1.25314000
F        0.82239697       1.09169726       1.56562345      -0.69724000      -0.28121000      -0.40328000      -0.28121000      -0.85870000      -0.53534000      -0.40328000      -0.53534000      -1.25314000
8
Lattice="0.0 4.274061 0.0 2.468117 0.0 0.0 0.0 -0.009328 -25.82922" Properties=species:S:1:pos:R:3:REF_becs:R:9 REF_electric_field="0.0 0.0 0.0" REF_polarisability="0.23932654004040504 0.0 0.0 0.0 1.0807016135973277 0.009446721224690993 0.0 0.009448233196650366 0.016347202092326298" REF_piezoelectric="0.0 0.0 0.0 0.0 0.0 0.0 0.0 0.0 0.0 0.0 0.0 0.0 0.0 0.0 0.0 0.0 0.0 0.0" REF_dielectric_ionic="0.000337 0.0 1e-06 0.0 0.000483 4e-06 1e-06 4e-06 5e-06" config_energy_weight=0.0 config_forces_weight=0.0 config_stress_weight=0.0 pbc="T T T"
C        1.23405850       2.13266838     -14.75339217       0.08004000       0.00688000       0.00038000       0.00000000       0.09862000      -0.00916000      -0.00000000       0.00249000       0.00543000
C        1.23405850       2.13206462     -11.07582783       0.08004000      -0.00688000      -0.00038000      -0.00000000       0.09873000      -0.00921000       0.00000000       0.00245000       0.00535000
C        1.23405850       0.70631900     -11.07606029      -0.08004000       0.00711000      -0.00001000       0.00000000      -0.09872000       0.00923000       0.00000000      -0.00241000      -0.00535000
C        1.23405850       3.55841400     -14.75315971      -0.08004000      -0.00711000       0.00001000       0.00000000      -0.09863000       0.00914000       0.00000000      -0.00253000      -0.00543000
C        0.00000000      -0.00436212     -14.75339217       0.08004000       0.00688000       0.00038000      -0.00000000       0.09862000      -0.00916000      -0.00000000       0.00249000       0.00543000
C        0.00000000       4.26909512     -11.07582783       0.08004000      -0.00688000      -0.00038000      -0.00000000       0.09873000      -0.00921000      -0.00000000       0.00245000       0.00535000
C        0.00000000       2.84334950     -11.07606029      -0.08004000       0.00711000      -0.00001000      -0.00000000      -0.09872000       0.00923000      -0.00000000      -0.00241000      -0.00535000
C        0.00000000       1.42138350     -14.75315971      -0.08004000      -0.00711000       0.00001000      -0.00000000      -0.09863000       0.00914000       0.00000000      -0.00253000      -0.00543000
8
Lattice="3.574593 0.0 0.0 0.0 3.574593 0.0 0.0 0.0 3.574593" Properties=species:S:1:pos:R:3:REF_becs:R:9 REF_electric_field="0.0 0.0 0.0" REF_polarisability="0.3843364284100651 -0.0 0.0 0.0 0.3843364284100651 -0.0 -0.0 0.0 0.3843364284100651" REF_piezoelectric="0.0 0.0 0.0 0.0 0.0 0.0 0.0 0.0 0.0 0.0 0.0 0.0 0.0 0.0 0.0 0.0 0.0 0.0" REF_dielectric_ionic="0.0 0.0 0.0 0.0 -0.0 0.0 0.0 -0.0 0.0" config_energy_weight=0.0 config_forces_weight=0.0 config_stress_weight=0.0 pbc="T T T"
C        1.34047238       3.12776888       3.12776888       0.00004000       0.00000000      -0.00000000       0.00000000       0.00004000      -0.00000000       0.00000000       0.00000000       0.00004000
C        0.44682413       2.23412063       0.44682413       0.00004000       0.00000000      -0.00000000       0.00000000       0.00004000      -0.00000000       0.00000000      -0.00000000       0.00004000
C        1.34047238       1.34047238       1.34047238       0.00004000      -0.00000000       0.00000000       0.00000000       0.00004000      -0.00000000      -0.00000000      -0.00000000       0.00004000
C        0.44682413       0.44682413       2.23412063       0.00004000      -0.00000000       0.00000000      -0.00000000       0.00004000       0.00000000       0.00000000      -0.00000000       0.00004000
C        3.12776888       3.12776888       1.34047238       0.00004000      -0.00000000      -0.00000000       0.00000000       0.00004000       0.00000000      -0.00000000       0.00000000       0.00004000
C        2.23412063       2.23412063       2.23412063       0.00004000      -0.00000000       0.00000000      -0.00000000       0.00004000       0.00000000       0.00000000      -0.00000000       0.00004000
C        3.12776888       1.34047238       3.12776888       0.00004000       0.00000000      -0.00000000       0.00000000       0.00004000      -0.00000000      -0.00000000       0.00000000       0.00004000
C        2.23412063       0.44682413       0.44682413       0.00004000      -0.00000000       0.00000000       0.00000000       0.00004000       0.00000000       0.00000000      -0.00000000       0.00004000
24
Lattice="5.335142 0.0 0.0 -2.667571 4.620369 0.0 0.0 0.0 16.594099" Properties=species:S:1:pos:R:3:REF_becs:R:9 REF_electric_field="0.0 0.0 0.0" REF_polarisability="0.16530079079686041 -0.0 0.0 -0.0 0.16530087037433197 0.0 0.0 0.0 0.26058407001447403" REF_piezoelectric="0.0 0.0 0.0 0.0 0.0 0.0 0.0 0.0 0.0 0.0 0.0 0.0 0.0 0.0 0.0 0.0 0.0 0.0" REF_dielectric_ionic="0.576187 0.0 0.0 0.0 0.576187 0.0 0.0 0.0 3.059712" config_energy_weight=0.0 config_forces_weight=0.0 config_stress_weight=0.0 pbc="T T T"
Au       2.66757367       2.39701509      12.44557425       1.19947000      -0.00000000       0.36533000      -0.00000000       2.11831000       0.00000000       0.66772000      -0.00000000       2.87042000
Au      -0.74209424       3.50869436      15.21126295       1.88860000      -0.39787000       0.18267000      -0.39787000       1.42918000       0.31639000       0.33386000       0.57826000       2.87042000
Au       0.74208891       3.50869436       9.67988555       1.88860000       0.39787000       0.18267000       0.39787000       1.42918000      -0.31639000       0.33386000      -0.57826000       2.87042000
Au       1.92548209       1.11167464       1.38283605       1.88860000       0.39787000      -0.18267000       0.39787000       1.42918000       0.31639000      -0.33386000       0.57826000       2.87042000
Au       3.40966524       1.11167464       6.91421345       1.88860000      -0.39787000      -0.18267000      -0.39787000       1.42918000      -0.31639000      -0.33386000      -0.57826000       2.87042000
Au      -0.00000267       2.22335391       4.14852475       1.19947000      -0.00000000      -0.36533000      -0.00000000       2.11831000       0.00000000      -0.66772000      -0.00000000       2.87042000
F        2.89910016       2.14334298       2.69431748      -0.50361000      -0.20863000      -0.27132000      -0.17994000      -0.50922000      -0.21035000      -0.35490000      -0.43658000      -0.83420000
F        2.02940265       1.43902317       8.22569487      -0.67608000       0.08037000       0.31782000       0.10906000      -0.33675000      -0.12980000       0.55554000      -0.08906000      -0.83420000
F        3.07421019       1.03800286      13.75705568      -0.33956000       0.08523000      -0.04650000       0.11392000      -0.67327000       0.34014000      -0.20064000       0.52564000      -0.83420000
F       -0.40663919       3.58236614       5.46000618      -0.33956000       0.08523000       0.04650000       0.11392000      -0.67327000      -0.34014000       0.20064000      -0.52564000      -0.83420000
F       -0.63816835       3.18134583       8.36840413      -0.67608000      -0.08037000      -0.31782000      -0.10906000      -0.33675000      -0.12980000      -0.55554000      -0.08906000      -0.83420000